M 0.00000 0 (663.00, 484.00, 0.00), (0.00, 0.00), 0.00
M 0.00000 21 (263.00, 306.00, 0.00), (150.00, 150.00), 40.00
M 0.00000 20 (350.00, 434.00, 0.00), (150.00, 150.00), 40.00
s 1.000000000 _21_ AGT  --- 0 cbr 1000 [0 0 0 0] ------- [21:0 17:0 32 0] [0] 0 0
r 1.000000000 _21_ RTR  --- 0 cbr 1000 [0 0 0 0] ------- [21:0 17:0 32 0] [0] 0 0
s 1.000000000 _21_ RTR  --- 1 DYMOUM 48 [0 0 0 0] ------- [21:255 -1:255 1 0] [ RE 0 0 28 10 0 1 17 0 0 [0 0 0 21 2] ]
r 1.001408227 _22_ RTR  --- 1 DYMOUM 48 [0 ffffffff 15 800] ------- [21:255 -1:255 1 0] [ RE 0 0 28 10 0 1 17 0 0 [0 0 0 21 2] ]
s 1.001408227 _22_ RTR  --- 2 DYMOUM 60 [0 0 0 0] ------- [22:255 -1:255 1 0] [ RE 0 0 40 9 0 1 1060745282 0 0 [0 0 1 21 2] [0 0 0 22 2] ]
r 1.001408445 _15_ RTR  --- 1 DYMOUM 48 [0 ffffffff 15 800] ------- [21:255 -1:255 1 0] [ RE 0 0 28 10 0 1 17 0 0 [0 0 0 21 2] ]
s 1.001408445 _15_ RTR  --- 3 DYMOUM 60 [0 0 0 0] ------- [15:255 -1:255 1 0] [ RE 0 0 40 9 0 1 1060745282 0 0 [0 0 1 21 2] [0 0 0 15 2] ]
r 1.001408516 _20_ RTR  --- 1 DYMOUM 48 [0 ffffffff 15 800] ------- [21:255 -1:255 1 0] [ RE 0 0 28 10 0 1 17 0 0 [0 0 0 21 2] ]
s 1.001408516 _20_ RTR  --- 4 DYMOUM 60 [0 0 0 0] ------- [20:255 -1:255 1 0] [ RE 0 0 40 9 0 1 1060745282 0 0 [0 0 1 21 2] [0 0 0 20 2] ]
r 1.001408529 _23_ RTR  --- 1 DYMOUM 48 [0 ffffffff 15 800] ------- [21:255 -1:255 1 0] [ RE 0 0 28 10 0 1 17 0 0 [0 0 0 21 2] ]
s 1.001408529 _23_ RTR  --- 5 DYMOUM 60 [0 0 0 0] ------- [23:255 -1:255 1 0] [ RE 0 0 40 9 0 1 1060745282 0 0 [0 0 1 21 2] [0 0 0 23 2] ]
r 1.002452850 _22_ RTR  --- 5 DYMOUM 60 [0 ffffffff 17 800] ------- [23:255 -1:255 1 0] [ RE 0 0 40 9 0 1 1060745282 0 0 [0 0 1 21 2] [0 0 0 23 2] ]
r 1.002452905 _24_ RTR  --- 5 DYMOUM 60 [0 ffffffff 17 800] ------- [23:255 -1:255 1 0] [ RE 0 0 40 9 0 1 1060745282 0 0 [0 0 1 21 2] [0 0 0 23 2] ]
s 1.002452905 _24_ RTR  --- 6 DYMOUM 72 [0 0 0 0] ------- [24:255 -1:255 1 0] [ RE 0 0 52 8 0 1 -741915825 0 0 [0 0 2 21 2] [0 0 1 23 2] [0 0 0 24 2] ]
r 1.002453057 _21_ RTR  --- 5 DYMOUM 60 [0 ffffffff 17 800] ------- [23:255 -1:255 1 0] [ RE 0 0 40 9 0 1 1060745282 0 0 [0 0 1 21 2] [0 0 0 23 2] ]
r 1.002453212 _15_ RTR  --- 5 DYMOUM 60 [0 ffffffff 17 800] ------- [23:255 -1:255 1 0] [ RE 0 0 40 9 0 1 1060745282 0 0 [0 0 1 21 2] [0 0 0 23 2] ]
r 1.002453315 _9_ RTR  --- 5 DYMOUM 60 [0 ffffffff 17 800] ------- [23:255 -1:255 1 0] [ RE 0 0 40 9 0 1 1060745282 0 0 [0 0 1 21 2] [0 0 0 23 2] ]
s 1.002453315 _9_ RTR  --- 7 DYMOUM 72 [0 0 0 0] ------- [9:255 -1:255 1 0] [ RE 0 0 52 8 0 1 -741915825 0 0 [0 0 2 21 2] [0 0 1 23 2] [0 0 0 9 2] ]
r 1.003793281 _23_ RTR  --- 6 DYMOUM 72 [0 ffffffff 18 800] ------- [24:255 -1:255 1 0] [ RE 0 0 52 8 0 1 -741915825 0 0 [0 0 2 21 2] [0 0 1 23 2] [0 0 0 24 2] ]
r 1.003793522 _9_ RTR  --- 6 DYMOUM 72 [0 ffffffff 18 800] ------- [24:255 -1:255 1 0] [ RE 0 0 52 8 0 1 -741915825 0 0 [0 0 2 21 2] [0 0 1 23 2] [0 0 0 24 2] ]
r 1.003793529 _22_ RTR  --- 6 DYMOUM 72 [0 ffffffff 18 800] ------- [24:255 -1:255 1 0] [ RE 0 0 52 8 0 1 -741915825 0 0 [0 0 2 21 2] [0 0 1 23 2] [0 0 0 24 2] ]
r 1.003793558 _12_ RTR  --- 6 DYMOUM 72 [0 ffffffff 18 800] ------- [24:255 -1:255 1 0] [ RE 0 0 52 8 0 1 -741915825 0 0 [0 0 2 21 2] [0 0 1 23 2] [0 0 0 24 2] ]
s 1.003793558 _12_ RTR  --- 8 DYMOUM 84 [0 0 0 0] ------- [12:255 -1:255 1 0] [ RE 0 0 64 7 0 1 -1747356453 0 0 [0 0 3 21 2] [0 0 2 23 2] [0 0 1 24 2] [0 0 0 12 2] ]
r 1.003793736 _15_ RTR  --- 6 DYMOUM 72 [0 ffffffff 18 800] ------- [24:255 -1:255 1 0] [ RE 0 0 52 8 0 1 -741915825 0 0 [0 0 2 21 2] [0 0 1 23 2] [0 0 0 24 2] ]
r 1.004923820 _12_ RTR  --- 7 DYMOUM 72 [0 ffffffff 9 800] ------- [9:255 -1:255 1 0] [ RE 0 0 52 8 0 1 -741915825 0 0 [0 0 2 21 2] [0 0 1 23 2] [0 0 0 9 2] ]
r 1.004923986 _18_ RTR  --- 7 DYMOUM 72 [0 ffffffff 9 800] ------- [9:255 -1:255 1 0] [ RE 0 0 52 8 0 1 -741915825 0 0 [0 0 2 21 2] [0 0 1 23 2] [0 0 0 9 2] ]
s 1.004923986 _18_ RTR  --- 9 DYMOUM 84 [0 0 0 0] ------- [18:255 -1:255 1 0] [ RE 0 0 64 7 0 1 -1747356453 0 0 [0 0 3 21 2] [0 0 2 23 2] [0 0 1 9 2] [0 0 0 18 2] ]
r 1.004924140 _24_ RTR  --- 7 DYMOUM 72 [0 ffffffff 9 800] ------- [9:255 -1:255 1 0] [ RE 0 0 52 8 0 1 -741915825 0 0 [0 0 2 21 2] [0 0 1 23 2] [0 0 0 9 2] ]
r 1.004924140 _15_ RTR  --- 7 DYMOUM 72 [0 ffffffff 9 800] ------- [9:255 -1:255 1 0] [ RE 0 0 52 8 0 1 -741915825 0 0 [0 0 2 21 2] [0 0 1 23 2] [0 0 0 9 2] ]
r 1.004924156 _6_ RTR  --- 7 DYMOUM 72 [0 ffffffff 9 800] ------- [9:255 -1:255 1 0] [ RE 0 0 52 8 0 1 -741915825 0 0 [0 0 2 21 2] [0 0 1 23 2] [0 0 0 9 2] ]
s 1.004924156 _6_ RTR  --- 10 DYMOUM 84 [0 0 0 0] ------- [6:255 -1:255 1 0] [ RE 0 0 64 7 0 1 -1747356453 0 0 [0 0 3 21 2] [0 0 2 23 2] [0 0 1 9 2] [0 0 0 6 2] ]
r 1.004924221 _7_ RTR  --- 7 DYMOUM 72 [0 ffffffff 9 800] ------- [9:255 -1:255 1 0] [ RE 0 0 52 8 0 1 -741915825 0 0 [0 0 2 21 2] [0 0 1 23 2] [0 0 0 9 2] ]
s 1.004924221 _7_ RTR  --- 11 DYMOUM 84 [0 0 0 0] ------- [7:255 -1:255 1 0] [ RE 0 0 64 7 0 1 -1747356453 0 0 [0 0 3 21 2] [0 0 2 23 2] [0 0 1 9 2] [0 0 0 7 2] ]
r 1.004924252 _4_ RTR  --- 7 DYMOUM 72 [0 ffffffff 9 800] ------- [9:255 -1:255 1 0] [ RE 0 0 52 8 0 1 -741915825 0 0 [0 0 2 21 2] [0 0 1 23 2] [0 0 0 9 2] ]
s 1.004924252 _4_ RTR  --- 12 DYMOUM 84 [0 0 0 0] ------- [4:255 -1:255 1 0] [ RE 0 0 64 7 0 1 -1747356453 0 0 [0 0 3 21 2] [0 0 2 23 2] [0 0 1 9 2] [0 0 0 4 2] ]
r 1.004924275 _13_ RTR  --- 7 DYMOUM 72 [0 ffffffff 9 800] ------- [9:255 -1:255 1 0] [ RE 0 0 52 8 0 1 -741915825 0 0 [0 0 2 21 2] [0 0 1 23 2] [0 0 0 9 2] ]
s 1.004924275 _13_ RTR  --- 13 DYMOUM 84 [0 0 0 0] ------- [13:255 -1:255 1 0] [ RE 0 0 64 7 0 1 -1747356453 0 0 [0 0 3 21 2] [0 0 2 23 2] [0 0 1 9 2] [0 0 0 13 2] ]
r 1.004924302 _22_ RTR  --- 7 DYMOUM 72 [0 ffffffff 9 800] ------- [9:255 -1:255 1 0] [ RE 0 0 52 8 0 1 -741915825 0 0 [0 0 2 21 2] [0 0 1 23 2] [0 0 0 9 2] ]
r 1.004924309 _23_ RTR  --- 7 DYMOUM 72 [0 ffffffff 9 800] ------- [9:255 -1:255 1 0] [ RE 0 0 52 8 0 1 -741915825 0 0 [0 0 2 21 2] [0 0 1 23 2] [0 0 0 9 2] ]
r 1.004924316 _10_ RTR  --- 7 DYMOUM 72 [0 ffffffff 9 800] ------- [9:255 -1:255 1 0] [ RE 0 0 52 8 0 1 -741915825 0 0 [0 0 2 21 2] [0 0 1 23 2] [0 0 0 9 2] ]
s 1.004924316 _10_ RTR  --- 14 DYMOUM 84 [0 0 0 0] ------- [10:255 -1:255 1 0] [ RE 0 0 64 7 0 1 -1747356453 0 0 [0 0 3 21 2] [0 0 2 23 2] [0 0 1 9 2] [0 0 0 10 2] ]
r 1.005938566 _22_ RTR  --- 3 DYMOUM 60 [0 ffffffff f 800] ------- [15:255 -1:255 1 0] [ RE 0 0 40 9 0 1 1060745282 0 0 [0 0 1 21 2] [0 0 0 15 2] ]
r 1.005938585 _21_ RTR  --- 3 DYMOUM 60 [0 ffffffff f 800] ------- [15:255 -1:255 1 0] [ RE 0 0 40 9 0 1 1060745282 0 0 [0 0 1 21 2] [0 0 0 15 2] ]
r 1.005938600 _20_ RTR  --- 3 DYMOUM 60 [0 ffffffff f 800] ------- [15:255 -1:255 1 0] [ RE 0 0 40 9 0 1 1060745282 0 0 [0 0 1 21 2] [0 0 0 15 2] ]
r 1.005938689 _1_ RTR  --- 3 DYMOUM 60 [0 ffffffff f 800] ------- [15:255 -1:255 1 0] [ RE 0 0 40 9 0 1 1060745282 0 0 [0 0 1 21 2] [0 0 0 15 2] ]
s 1.005938689 _1_ RTR  --- 15 DYMOUM 72 [0 0 0 0] ------- [1:255 -1:255 1 0] [ RE 0 0 52 8 0 1 -741915825 0 0 [0 0 2 21 2] [0 0 1 15 2] [0 0 0 1 2] ]
r 1.005938757 _9_ RTR  --- 3 DYMOUM 60 [0 ffffffff f 800] ------- [15:255 -1:255 1 0] [ RE 0 0 40 9 0 1 1060745282 0 0 [0 0 1 21 2] [0 0 0 15 2] ]
r 1.005938778 _4_ RTR  --- 3 DYMOUM 60 [0 ffffffff f 800] ------- [15:255 -1:255 1 0] [ RE 0 0 40 9 0 1 1060745282 0 0 [0 0 1 21 2] [0 0 0 15 2] ]
s 1.005938778 _4_ RTR  --- 16 DYMOUM 72 [0 0 0 0] ------- [4:255 -1:255 1 0] [ RE 0 0 52 8 0 1 -741915825 0 0 [0 0 2 21 2] [0 0 1 15 2] [0 0 0 4 3] ]
r 1.005938823 _23_ RTR  --- 3 DYMOUM 60 [0 ffffffff f 800] ------- [15:255 -1:255 1 0] [ RE 0 0 40 9 0 1 1060745282 0 0 [0 0 1 21 2] [0 0 0 15 2] ]
r 1.005938885 _19_ RTR  --- 3 DYMOUM 60 [0 ffffffff f 800] ------- [15:255 -1:255 1 0] [ RE 0 0 40 9 0 1 1060745282 0 0 [0 0 1 21 2] [0 0 0 15 2] ]
s 1.005938885 _19_ RTR  --- 17 DYMOUM 72 [0 0 0 0] ------- [19:255 -1:255 1 0] [ RE 0 0 52 8 0 1 -741915825 0 0 [0 0 2 21 2] [0 0 1 15 2] [0 0 0 19 2] ]
r 1.005938955 _18_ RTR  --- 3 DYMOUM 60 [0 ffffffff f 800] ------- [15:255 -1:255 1 0] [ RE 0 0 40 9 0 1 1060745282 0 0 [0 0 1 21 2] [0 0 0 15 2] ]
s 1.005938955 _18_ RTR  --- 18 DYMOUM 72 [0 0 0 0] ------- [18:255 -1:255 1 0] [ RE 0 0 52 8 0 1 -741915825 0 0 [0 0 2 21 2] [0 0 1 15 2] [0 0 0 18 3] ]
r 1.005938971 _24_ RTR  --- 3 DYMOUM 60 [0 ffffffff f 800] ------- [15:255 -1:255 1 0] [ RE 0 0 40 9 0 1 1060745282 0 0 [0 0 1 21 2] [0 0 0 15 2] ]
r 1.007165196 _7_ RTR  --- 9 DYMOUM 84 [0 ffffffff 12 800] ------- [18:255 -1:255 1 0] [ RE 0 0 64 7 0 1 -1747356453 0 0 [0 0 3 21 2] [0 0 2 23 2] [0 0 1 9 2] [0 0 0 18 2] ]
r 1.007165383 _10_ RTR  --- 9 DYMOUM 84 [0 ffffffff 12 800] ------- [18:255 -1:255 1 0] [ RE 0 0 64 7 0 1 -1747356453 0 0 [0 0 3 21 2] [0 0 2 23 2] [0 0 1 9 2] [0 0 0 18 2] ]
r 1.007165418 _9_ RTR  --- 9 DYMOUM 84 [0 ffffffff 12 800] ------- [18:255 -1:255 1 0] [ RE 0 0 64 7 0 1 -1747356453 0 0 [0 0 3 21 2] [0 0 2 23 2] [0 0 1 9 2] [0 0 0 18 2] ]
r 1.007165442 _4_ RTR  --- 9 DYMOUM 84 [0 ffffffff 12 800] ------- [18:255 -1:255 1 0] [ RE 0 0 64 7 0 1 -1747356453 0 0 [0 0 3 21 2] [0 0 2 23 2] [0 0 1 9 2] [0 0 0 18 2] ]
r 1.007165450 _6_ RTR  --- 9 DYMOUM 84 [0 ffffffff 12 800] ------- [18:255 -1:255 1 0] [ RE 0 0 64 7 0 1 -1747356453 0 0 [0 0 3 21 2] [0 0 2 23 2] [0 0 1 9 2] [0 0 0 18 2] ]
r 1.007165516 _13_ RTR  --- 9 DYMOUM 84 [0 ffffffff 12 800] ------- [18:255 -1:255 1 0] [ RE 0 0 64 7 0 1 -1747356453 0 0 [0 0 3 21 2] [0 0 2 23 2] [0 0 1 9 2] [0 0 0 18 2] ]
r 1.007165521 _8_ RTR  --- 9 DYMOUM 84 [0 ffffffff 12 800] ------- [18:255 -1:255 1 0] [ RE 0 0 64 7 0 1 -1747356453 0 0 [0 0 3 21 2] [0 0 2 23 2] [0 0 1 9 2] [0 0 0 18 2] ]
s 1.007165521 _8_ RTR  --- 19 DYMOUM 96 [0 0 0 0] ------- [8:255 -1:255 1 0] [ RE 0 0 76 6 0 1 396546651 0 0 [0 0 4 21 2] [0 0 3 23 2] [0 0 2 9 2] [0 0 1 18 2] [0 0 0 8 2] ]
r 1.007165528 _12_ RTR  --- 9 DYMOUM 84 [0 ffffffff 12 800] ------- [18:255 -1:255 1 0] [ RE 0 0 64 7 0 1 -1747356453 0 0 [0 0 3 21 2] [0 0 2 23 2] [0 0 1 9 2] [0 0 0 18 2] ]
r 1.007165700 _3_ RTR  --- 9 DYMOUM 84 [0 ffffffff 12 800] ------- [18:255 -1:255 1 0] [ RE 0 0 64 7 0 1 -1747356453 0 0 [0 0 3 21 2] [0 0 2 23 2] [0 0 1 9 2] [0 0 0 18 2] ]
s 1.007165700 _3_ RTR  --- 20 DYMOUM 96 [0 0 0 0] ------- [3:255 -1:255 1 0] [ RE 0 0 76 6 0 1 396546651 0 0 [0 0 4 21 2] [0 0 3 23 2] [0 0 2 9 2] [0 0 1 18 2] [0 0 0 3 2] ]
r 1.007165712 _5_ RTR  --- 9 DYMOUM 84 [0 ffffffff 12 800] ------- [18:255 -1:255 1 0] [ RE 0 0 64 7 0 1 -1747356453 0 0 [0 0 3 21 2] [0 0 2 23 2] [0 0 1 9 2] [0 0 0 18 2] ]
s 1.007165712 _5_ RTR  --- 21 DYMOUM 96 [0 0 0 0] ------- [5:255 -1:255 1 0] [ RE 0 0 76 6 0 1 396546651 0 0 [0 0 4 21 2] [0 0 3 23 2] [0 0 2 9 2] [0 0 1 18 2] [0 0 0 5 2] ]
r 1.007165717 _11_ RTR  --- 9 DYMOUM 84 [0 ffffffff 12 800] ------- [18:255 -1:255 1 0] [ RE 0 0 64 7 0 1 -1747356453 0 0 [0 0 3 21 2] [0 0 2 23 2] [0 0 1 9 2] [0 0 0 18 2] ]
s 1.007165717 _11_ RTR  --- 22 DYMOUM 48 [0 0 0 0] ------- [11:255 18:255 1 18] [ RE 0 0 28 10 0 0 21 1002 4 [0 0 0 396546651 2] ]
r 1.007165770 _15_ RTR  --- 9 DYMOUM 84 [0 ffffffff 12 800] ------- [18:255 -1:255 1 0] [ RE 0 0 64 7 0 1 -1747356453 0 0 [0 0 3 21 2] [0 0 2 23 2] [0 0 1 9 2] [0 0 0 18 2] ]
r 1.008517806 _5_ RTR  --- 19 DYMOUM 96 [0 ffffffff 8 800] ------- [8:255 -1:255 1 0] [ RE 0 0 76 6 0 1 396546651 0 0 [0 0 4 21 2] [0 0 3 23 2] [0 0 2 9 2] [0 0 1 18 2] [0 0 0 8 2] ]
r 1.008517849 _7_ RTR  --- 19 DYMOUM 96 [0 ffffffff 8 800] ------- [8:255 -1:255 1 0] [ RE 0 0 76 6 0 1 396546651 0 0 [0 0 4 21 2] [0 0 3 23 2] [0 0 2 9 2] [0 0 1 18 2] [0 0 0 8 2] ]
r 1.008517900 _11_ RTR  --- 19 DYMOUM 96 [0 ffffffff 8 800] ------- [8:255 -1:255 1 0] [ RE 0 0 76 6 0 1 396546651 0 0 [0 0 4 21 2] [0 0 3 23 2] [0 0 2 9 2] [0 0 1 18 2] [0 0 0 8 2] ]
r 1.008517929 _10_ RTR  --- 19 DYMOUM 96 [0 ffffffff 8 800] ------- [8:255 -1:255 1 0] [ RE 0 0 76 6 0 1 396546651 0 0 [0 0 4 21 2] [0 0 3 23 2] [0 0 2 9 2] [0 0 1 18 2] [0 0 0 8 2] ]
r 1.008517999 _16_ RTR  --- 19 DYMOUM 96 [0 ffffffff 8 800] ------- [8:255 -1:255 1 0] [ RE 0 0 76 6 0 1 396546651 0 0 [0 0 4 21 2] [0 0 3 23 2] [0 0 2 9 2] [0 0 1 18 2] [0 0 0 8 2] ]
s 1.008517999 _16_ RTR  --- 23 DYMOUM 48 [0 0 0 0] ------- [16:255 8:255 1 8] [ RE 0 0 28 10 0 0 21 1002 5 [0 0 0 -1495579636 2] ]
r 1.008518087 _18_ RTR  --- 19 DYMOUM 96 [0 ffffffff 8 800] ------- [8:255 -1:255 1 0] [ RE 0 0 76 6 0 1 396546651 0 0 [0 0 4 21 2] [0 0 3 23 2] [0 0 2 9 2] [0 0 1 18 2] [0 0 0 8 2] ]
r 1.008518103 _2_ RTR  --- 19 DYMOUM 96 [0 ffffffff 8 800] ------- [8:255 -1:255 1 0] [ RE 0 0 76 6 0 1 396546651 0 0 [0 0 4 21 2] [0 0 3 23 2] [0 0 2 9 2] [0 0 1 18 2] [0 0 0 8 2] ]
s 1.008518103 _2_ RTR  --- 24 DYMOUM 108 [0 0 0 0] ------- [2:255 -1:255 1 0] [ RE 0 0 88 5 0 1 -1495579636 0 0 [0 0 5 21 2] [0 0 4 23 2] [0 0 3 9 2] [0 0 2 18 2] [0 0 1 8 2] [0 0 0 2 2] ]
r 1.008518133 _17_ RTR  --- 19 DYMOUM 96 [0 ffffffff 8 800] ------- [8:255 -1:255 1 0] [ RE 0 0 76 6 0 1 396546651 0 0 [0 0 4 21 2] [0 0 3 23 2] [0 0 2 9 2] [0 0 1 18 2] [0 0 0 8 2] ]
s 1.008518133 _17_ RTR  --- 25 DYMOUM 108 [0 0 0 0] ------- [17:255 -1:255 1 0] [ RE 0 0 88 5 0 1 -1495579636 0 0 [0 0 5 21 2] [0 0 4 23 2] [0 0 3 9 2] [0 0 2 18 2] [0 0 1 8 2] [0 0 0 17 2] ]
r 1.008518135 _3_ RTR  --- 19 DYMOUM 96 [0 ffffffff 8 800] ------- [8:255 -1:255 1 0] [ RE 0 0 76 6 0 1 396546651 0 0 [0 0 4 21 2] [0 0 3 23 2] [0 0 2 9 2] [0 0 1 18 2] [0 0 0 8 2] ]
r 1.008518164 _14_ RTR  --- 19 DYMOUM 96 [0 ffffffff 8 800] ------- [8:255 -1:255 1 0] [ RE 0 0 76 6 0 1 396546651 0 0 [0 0 4 21 2] [0 0 3 23 2] [0 0 2 9 2] [0 0 1 18 2] [0 0 0 8 2] ]
s 1.008518164 _14_ RTR  --- 26 DYMOUM 48 [0 0 0 0] ------- [14:255 8:255 1 8] [ RE 0 0 28 10 0 0 21 1002 5 [0 0 0 -1495579636 2] ]
r 1.008518226 _13_ RTR  --- 19 DYMOUM 96 [0 ffffffff 8 800] ------- [8:255 -1:255 1 0] [ RE 0 0 76 6 0 1 396546651 0 0 [0 0 4 21 2] [0 0 3 23 2] [0 0 2 9 2] [0 0 1 18 2] [0 0 0 8 2] ]
r 1.008518256 _4_ RTR  --- 19 DYMOUM 96 [0 ffffffff 8 800] ------- [8:255 -1:255 1 0] [ RE 0 0 76 6 0 1 396546651 0 0 [0 0 4 21 2] [0 0 3 23 2] [0 0 2 9 2] [0 0 1 18 2] [0 0 0 8 2] ]
r 1.008518266 _6_ RTR  --- 19 DYMOUM 96 [0 ffffffff 8 800] ------- [8:255 -1:255 1 0] [ RE 0 0 76 6 0 1 396546651 0 0 [0 0 4 21 2] [0 0 3 23 2] [0 0 2 9 2] [0 0 1 18 2] [0 0 0 8 2] ]
r 1.009804226 _13_ RTR  --- 14 DYMOUM 84 [0 ffffffff a 800] ------- [10:255 -1:255 1 0] [ RE 0 0 64 7 0 1 -1747356453 0 0 [0 0 3 21 2] [0 0 2 23 2] [0 0 1 9 2] [0 0 0 10 2] ]
r 1.011298598 _7_ RTR  --- 18 DYMOUM 72 [0 ffffffff 12 800] ------- [18:255 -1:255 1 0] [ RE 0 0 52 8 0 1 -741915825 0 0 [0 0 2 21 2] [0 0 1 15 2] [0 0 0 18 3] ]
r 1.011298785 _10_ RTR  --- 18 DYMOUM 72 [0 ffffffff 12 800] ------- [18:255 -1:255 1 0] [ RE 0 0 52 8 0 1 -741915825 0 0 [0 0 2 21 2] [0 0 1 15 2] [0 0 0 18 3] ]
r 1.011298820 _9_ RTR  --- 18 DYMOUM 72 [0 ffffffff 12 800] ------- [18:255 -1:255 1 0] [ RE 0 0 52 8 0 1 -741915825 0 0 [0 0 2 21 2] [0 0 1 15 2] [0 0 0 18 3] ]
r 1.011298844 _4_ RTR  --- 18 DYMOUM 72 [0 ffffffff 12 800] ------- [18:255 -1:255 1 0] [ RE 0 0 52 8 0 1 -741915825 0 0 [0 0 2 21 2] [0 0 1 15 2] [0 0 0 18 3] ]
r 1.011298852 _6_ RTR  --- 18 DYMOUM 72 [0 ffffffff 12 800] ------- [18:255 -1:255 1 0] [ RE 0 0 52 8 0 1 -741915825 0 0 [0 0 2 21 2] [0 0 1 15 2] [0 0 0 18 3] ]
r 1.011298918 _13_ RTR  --- 18 DYMOUM 72 [0 ffffffff 12 800] ------- [18:255 -1:255 1 0] [ RE 0 0 52 8 0 1 -741915825 0 0 [0 0 2 21 2] [0 0 1 15 2] [0 0 0 18 3] ]
r 1.011298923 _8_ RTR  --- 18 DYMOUM 72 [0 ffffffff 12 800] ------- [18:255 -1:255 1 0] [ RE 0 0 52 8 0 1 -741915825 0 0 [0 0 2 21 2] [0 0 1 15 2] [0 0 0 18 3] ]
s 1.011298923 _8_ RTR  --- 27 DYMOUM 84 [0 0 0 0] ------- [8:255 -1:255 1 0] [ RE 0 0 64 7 0 1 -1747356453 0 0 [0 0 3 21 2] [0 0 2 15 2] [0 0 1 18 3] [0 0 0 8 3] ]
r 1.011298930 _12_ RTR  --- 18 DYMOUM 72 [0 ffffffff 12 800] ------- [18:255 -1:255 1 0] [ RE 0 0 52 8 0 1 -741915825 0 0 [0 0 2 21 2] [0 0 1 15 2] [0 0 0 18 3] ]
r 1.011299102 _3_ RTR  --- 18 DYMOUM 72 [0 ffffffff 12 800] ------- [18:255 -1:255 1 0] [ RE 0 0 52 8 0 1 -741915825 0 0 [0 0 2 21 2] [0 0 1 15 2] [0 0 0 18 3] ]
s 1.011299102 _3_ RTR  --- 28 DYMOUM 84 [0 0 0 0] ------- [3:255 -1:255 1 0] [ RE 0 0 64 7 0 1 -1747356453 0 0 [0 0 3 21 2] [0 0 2 15 2] [0 0 1 18 3] [0 0 0 3 3] ]
r 1.011299113 _5_ RTR  --- 18 DYMOUM 72 [0 ffffffff 12 800] ------- [18:255 -1:255 1 0] [ RE 0 0 52 8 0 1 -741915825 0 0 [0 0 2 21 2] [0 0 1 15 2] [0 0 0 18 3] ]
s 1.011299113 _5_ RTR  --- 29 DYMOUM 84 [0 0 0 0] ------- [5:255 -1:255 1 0] [ RE 0 0 64 7 0 1 -1747356453 0 0 [0 0 3 21 2] [0 0 2 15 2] [0 0 1 18 3] [0 0 0 5 3] ]
r 1.011299119 _11_ RTR  --- 18 DYMOUM 72 [0 ffffffff 12 800] ------- [18:255 -1:255 1 0] [ RE 0 0 52 8 0 1 -741915825 0 0 [0 0 2 21 2] [0 0 1 15 2] [0 0 0 18 3] ]
s 1.011299119 _11_ RTR  --- 30 DYMOUM 48 [0 0 0 0] ------- [11:255 18:255 1 18] [ RE 0 0 28 10 0 0 21 1002 3 [0 0 0 -1747356453 3] ]
D 1.011299119 _11_ IFQ  ARP 22 DYMOUM 48 [0 0 b 800] ------- [11:255 18:255 1 18] [ RE 0 0 28 10 0 0 21 1002 4 [0 0 0 396546651 2] ]
r 1.011299172 _15_ RTR  --- 18 DYMOUM 72 [0 ffffffff 12 800] ------- [18:255 -1:255 1 0] [ RE 0 0 52 8 0 1 -741915825 0 0 [0 0 2 21 2] [0 0 1 15 2] [0 0 0 18 3] ]
r 1.012525042 _6_ RTR  --- 13 DYMOUM 84 [0 ffffffff d 800] ------- [13:255 -1:255 1 0] [ RE 0 0 64 7 0 1 -1747356453 0 0 [0 0 3 21 2] [0 0 2 23 2] [0 0 1 9 2] [0 0 0 13 2] ]
r 1.012525207 _5_ RTR  --- 27 DYMOUM 84 [0 ffffffff 8 800] ------- [8:255 -1:255 1 0] [ RE 0 0 64 7 0 1 -1747356453 0 0 [0 0 3 21 2] [0 0 2 15 2] [0 0 1 18 3] [0 0 0 8 3] ]
r 1.012525511 _12_ RTR  --- 13 DYMOUM 84 [0 ffffffff d 800] ------- [13:255 -1:255 1 0] [ RE 0 0 64 7 0 1 -1747356453 0 0 [0 0 3 21 2] [0 0 2 23 2] [0 0 1 9 2] [0 0 0 13 2] ]
r 1.014212413 _0_ RTR  --- 20 DYMOUM 96 [0 ffffffff 3 800] ------- [3:255 -1:255 1 0] [ RE 0 0 76 6 0 1 396546651 0 0 [0 0 4 21 2] [0 0 3 23 2] [0 0 2 9 2] [0 0 1 18 2] [0 0 0 3 2] ]
s 1.014212413 _0_ RTR  --- 31 DYMOUM 108 [0 0 0 0] ------- [0:255 -1:255 1 0] [ RE 0 0 88 5 0 1 -1495579636 0 0 [0 0 5 21 2] [0 0 4 23 2] [0 0 3 9 2] [0 0 2 18 2] [0 0 1 3 2] [0 0 0 0 2] ]
r 1.014212522 _2_ RTR  --- 20 DYMOUM 96 [0 ffffffff 3 800] ------- [3:255 -1:255 1 0] [ RE 0 0 76 6 0 1 396546651 0 0 [0 0 4 21 2] [0 0 3 23 2] [0 0 2 9 2] [0 0 1 18 2] [0 0 0 3 2] ]
r 1.014212549 _4_ RTR  --- 20 DYMOUM 96 [0 ffffffff 3 800] ------- [3:255 -1:255 1 0] [ RE 0 0 76 6 0 1 396546651 0 0 [0 0 4 21 2] [0 0 3 23 2] [0 0 2 9 2] [0 0 1 18 2] [0 0 0 3 2] ]
r 1.014212563 _5_ RTR  --- 20 DYMOUM 96 [0 ffffffff 3 800] ------- [3:255 -1:255 1 0] [ RE 0 0 76 6 0 1 396546651 0 0 [0 0 4 21 2] [0 0 3 23 2] [0 0 2 9 2] [0 0 1 18 2] [0 0 0 3 2] ]
r 1.014212723 _8_ RTR  --- 20 DYMOUM 96 [0 ffffffff 3 800] ------- [3:255 -1:255 1 0] [ RE 0 0 76 6 0 1 396546651 0 0 [0 0 4 21 2] [0 0 3 23 2] [0 0 2 9 2] [0 0 1 18 2] [0 0 0 3 2] ]
r 1.014212773 _7_ RTR  --- 20 DYMOUM 96 [0 ffffffff 3 800] ------- [3:255 -1:255 1 0] [ RE 0 0 76 6 0 1 396546651 0 0 [0 0 4 21 2] [0 0 3 23 2] [0 0 2 9 2] [0 0 1 18 2] [0 0 0 3 2] ]
r 1.014212784 _1_ RTR  --- 20 DYMOUM 96 [0 ffffffff 3 800] ------- [3:255 -1:255 1 0] [ RE 0 0 76 6 0 1 396546651 0 0 [0 0 4 21 2] [0 0 3 23 2] [0 0 2 9 2] [0 0 1 18 2] [0 0 0 3 2] ]
r 1.014212855 _18_ RTR  --- 20 DYMOUM 96 [0 ffffffff 3 800] ------- [3:255 -1:255 1 0] [ RE 0 0 76 6 0 1 396546651 0 0 [0 0 4 21 2] [0 0 3 23 2] [0 0 2 9 2] [0 0 1 18 2] [0 0 0 3 2] ]
r 1.014212875 _19_ RTR  --- 20 DYMOUM 96 [0 ffffffff 3 800] ------- [3:255 -1:255 1 0] [ RE 0 0 76 6 0 1 396546651 0 0 [0 0 4 21 2] [0 0 3 23 2] [0 0 2 9 2] [0 0 1 18 2] [0 0 0 3 2] ]
r 1.014212926 _17_ RTR  --- 20 DYMOUM 96 [0 ffffffff 3 800] ------- [3:255 -1:255 1 0] [ RE 0 0 76 6 0 1 396546651 0 0 [0 0 4 21 2] [0 0 3 23 2] [0 0 2 9 2] [0 0 1 18 2] [0 0 0 3 2] ]
r 1.015438971 _1_ RTR  --- 12 DYMOUM 84 [0 ffffffff 4 800] ------- [4:255 -1:255 1 0] [ RE 0 0 64 7 0 1 -1747356453 0 0 [0 0 3 21 2] [0 0 2 23 2] [0 0 1 9 2] [0 0 0 4 2] ]
r 1.015438989 _3_ RTR  --- 12 DYMOUM 84 [0 ffffffff 4 800] ------- [4:255 -1:255 1 0] [ RE 0 0 64 7 0 1 -1747356453 0 0 [0 0 3 21 2] [0 0 2 23 2] [0 0 1 9 2] [0 0 0 4 2] ]
r 1.015439037 _18_ RTR  --- 12 DYMOUM 84 [0 ffffffff 4 800] ------- [4:255 -1:255 1 0] [ RE 0 0 64 7 0 1 -1747356453 0 0 [0 0 3 21 2] [0 0 2 23 2] [0 0 1 9 2] [0 0 0 4 2] ]
r 1.015439113 _7_ RTR  --- 12 DYMOUM 84 [0 ffffffff 4 800] ------- [4:255 -1:255 1 0] [ RE 0 0 64 7 0 1 -1747356453 0 0 [0 0 3 21 2] [0 0 2 23 2] [0 0 1 9 2] [0 0 0 4 2] ]
r 1.015439181 _19_ RTR  --- 12 DYMOUM 84 [0 ffffffff 4 800] ------- [4:255 -1:255 1 0] [ RE 0 0 64 7 0 1 -1747356453 0 0 [0 0 3 21 2] [0 0 2 23 2] [0 0 1 9 2] [0 0 0 4 2] ]
r 1.015439187 _15_ RTR  --- 12 DYMOUM 84 [0 ffffffff 4 800] ------- [4:255 -1:255 1 0] [ RE 0 0 64 7 0 1 -1747356453 0 0 [0 0 3 21 2] [0 0 2 23 2] [0 0 1 9 2] [0 0 0 4 2] ]
r 1.015439198 _0_ RTR  --- 12 DYMOUM 84 [0 ffffffff 4 800] ------- [4:255 -1:255 1 0] [ RE 0 0 64 7 0 1 -1747356453 0 0 [0 0 3 21 2] [0 0 2 23 2] [0 0 1 9 2] [0 0 0 4 2] ]
s 1.015439198 _0_ RTR  --- 32 DYMOUM 96 [0 0 0 0] ------- [0:255 -1:255 1 0] [ RE 0 0 76 6 0 1 396546651 0 0 [0 0 4 21 2] [0 0 3 23 2] [0 0 2 9 2] [0 0 1 4 2] [0 0 0 0 3] ]
r 1.015439279 _9_ RTR  --- 12 DYMOUM 84 [0 ffffffff 4 800] ------- [4:255 -1:255 1 0] [ RE 0 0 64 7 0 1 -1747356453 0 0 [0 0 3 21 2] [0 0 2 23 2] [0 0 1 9 2] [0 0 0 4 2] ]
r 1.015439284 _8_ RTR  --- 12 DYMOUM 84 [0 ffffffff 4 800] ------- [4:255 -1:255 1 0] [ RE 0 0 64 7 0 1 -1747356453 0 0 [0 0 3 21 2] [0 0 2 23 2] [0 0 1 9 2] [0 0 0 4 2] ]
r 1.015439293 _5_ RTR  --- 12 DYMOUM 84 [0 ffffffff 4 800] ------- [4:255 -1:255 1 0] [ RE 0 0 64 7 0 1 -1747356453 0 0 [0 0 3 21 2] [0 0 2 23 2] [0 0 1 9 2] [0 0 0 4 2] ]
r 1.015439366 _20_ RTR  --- 12 DYMOUM 84 [0 ffffffff 4 800] ------- [4:255 -1:255 1 0] [ RE 0 0 64 7 0 1 -1747356453 0 0 [0 0 3 21 2] [0 0 2 23 2] [0 0 1 9 2] [0 0 0 4 2] ]
r 1.015439377 _2_ RTR  --- 12 DYMOUM 84 [0 ffffffff 4 800] ------- [4:255 -1:255 1 0] [ RE 0 0 64 7 0 1 -1747356453 0 0 [0 0 3 21 2] [0 0 2 23 2] [0 0 1 9 2] [0 0 0 4 2] ]
s 1.015439377 _2_ RTR  --- 33 DYMOUM 96 [0 0 0 0] ------- [2:255 -1:255 1 0] [ RE 0 0 76 6 0 1 396546651 0 0 [0 0 4 21 2] [0 0 3 23 2] [0 0 2 9 2] [0 0 1 4 2] [0 0 0 2 3] ]
r 1.016917502 _3_ RTR  --- 31 DYMOUM 108 [0 ffffffff 0 800] ------- [0:255 -1:255 1 0] [ RE 0 0 88 5 0 1 -1495579636 0 0 [0 0 5 21 2] [0 0 4 23 2] [0 0 3 9 2] [0 0 2 18 2] [0 0 1 3 2] [0 0 0 0 2] ]
r 1.016917698 _2_ RTR  --- 31 DYMOUM 108 [0 ffffffff 0 800] ------- [0:255 -1:255 1 0] [ RE 0 0 88 5 0 1 -1495579636 0 0 [0 0 5 21 2] [0 0 4 23 2] [0 0 3 9 2] [0 0 2 18 2] [0 0 1 3 2] [0 0 0 0 2] ]
r 1.016917848 _4_ RTR  --- 31 DYMOUM 108 [0 ffffffff 0 800] ------- [0:255 -1:255 1 0] [ RE 0 0 88 5 0 1 -1495579636 0 0 [0 0 5 21 2] [0 0 4 23 2] [0 0 3 9 2] [0 0 2 18 2] [0 0 1 3 2] [0 0 0 0 2] ]
r 1.016917880 _5_ RTR  --- 31 DYMOUM 108 [0 ffffffff 0 800] ------- [0:255 -1:255 1 0] [ RE 0 0 88 5 0 1 -1495579636 0 0 [0 0 5 21 2] [0 0 4 23 2] [0 0 3 9 2] [0 0 2 18 2] [0 0 1 3 2] [0 0 0 0 2] ]
r 1.016917892 _19_ RTR  --- 31 DYMOUM 108 [0 ffffffff 0 800] ------- [0:255 -1:255 1 0] [ RE 0 0 88 5 0 1 -1495579636 0 0 [0 0 5 21 2] [0 0 4 23 2] [0 0 3 9 2] [0 0 2 18 2] [0 0 1 3 2] [0 0 0 0 2] ]
r 1.016917903 _1_ RTR  --- 31 DYMOUM 108 [0 ffffffff 0 800] ------- [0:255 -1:255 1 0] [ RE 0 0 88 5 0 1 -1495579636 0 0 [0 0 5 21 2] [0 0 4 23 2] [0 0 3 9 2] [0 0 2 18 2] [0 0 1 3 2] [0 0 0 0 2] ]
r 1.018163806 _0_ RTR  --- 28 DYMOUM 84 [0 ffffffff 3 800] ------- [3:255 -1:255 1 0] [ RE 0 0 64 7 0 1 -1747356453 0 0 [0 0 3 21 2] [0 0 2 15 2] [0 0 1 18 3] [0 0 0 3 3] ]
r 1.018260313 _17_ RTR  --- 21 DYMOUM 96 [0 ffffffff 5 800] ------- [5:255 -1:255 1 0] [ RE 0 0 76 6 0 1 396546651 0 0 [0 0 4 21 2] [0 0 3 23 2] [0 0 2 9 2] [0 0 1 18 2] [0 0 0 5 2] ]
r 1.018260336 _16_ RTR  --- 21 DYMOUM 96 [0 ffffffff 5 800] ------- [5:255 -1:255 1 0] [ RE 0 0 76 6 0 1 396546651 0 0 [0 0 4 21 2] [0 0 3 23 2] [0 0 2 9 2] [0 0 1 18 2] [0 0 0 5 2] ]
r 1.019755336 _1_ RTR  --- 17 DYMOUM 72 [0 ffffffff 13 800] ------- [19:255 -1:255 1 0] [ RE 0 0 52 8 0 1 -741915825 0 0 [0 0 2 21 2] [0 0 1 15 2] [0 0 0 19 2] ]
r 1.019755595 _20_ RTR  --- 17 DYMOUM 72 [0 ffffffff 13 800] ------- [19:255 -1:255 1 0] [ RE 0 0 52 8 0 1 -741915825 0 0 [0 0 2 21 2] [0 0 1 15 2] [0 0 0 19 2] ]
r 1.019755725 _4_ RTR  --- 17 DYMOUM 72 [0 ffffffff 13 800] ------- [19:255 -1:255 1 0] [ RE 0 0 52 8 0 1 -741915825 0 0 [0 0 2 21 2] [0 0 1 15 2] [0 0 0 19 2] ]
r 1.019755787 _0_ RTR  --- 17 DYMOUM 72 [0 ffffffff 13 800] ------- [19:255 -1:255 1 0] [ RE 0 0 52 8 0 1 -741915825 0 0 [0 0 2 21 2] [0 0 1 15 2] [0 0 0 19 2] ]
s 1.019755787 _0_ RTR  --- 34 DYMOUM 84 [0 0 0 0] ------- [0:255 -1:255 1 0] [ RE 0 0 64 7 0 1 -1747356453 0 0 [0 0 3 21 2] [0 0 2 15 2] [0 0 1 19 2] [0 0 0 0 4] ]
r 1.019755839 _15_ RTR  --- 17 DYMOUM 72 [0 ffffffff 13 800] ------- [19:255 -1:255 1 0] [ RE 0 0 52 8 0 1 -741915825 0 0 [0 0 2 21 2] [0 0 1 15 2] [0 0 0 19 2] ]
r 1.020810054 _15_ RTR  --- 4 DYMOUM 60 [0 ffffffff 14 800] ------- [20:255 -1:255 1 0] [ RE 0 0 40 9 0 1 1060745282 0 0 [0 0 1 21 2] [0 0 0 20 2] ]
r 1.020810060 _1_ RTR  --- 4 DYMOUM 60 [0 ffffffff 14 800] ------- [20:255 -1:255 1 0] [ RE 0 0 40 9 0 1 1060745282 0 0 [0 0 1 21 2] [0 0 0 20 2] ]
r 1.020810097 _19_ RTR  --- 4 DYMOUM 60 [0 ffffffff 14 800] ------- [20:255 -1:255 1 0] [ RE 0 0 40 9 0 1 1060745282 0 0 [0 0 1 21 2] [0 0 0 20 2] ]
r 1.020810111 _21_ RTR  --- 4 DYMOUM 60 [0 ffffffff 14 800] ------- [20:255 -1:255 1 0] [ RE 0 0 40 9 0 1 1060745282 0 0 [0 0 1 21 2] [0 0 0 20 2] ]
r 1.020810270 _22_ RTR  --- 4 DYMOUM 60 [0 ffffffff 14 800] ------- [20:255 -1:255 1 0] [ RE 0 0 40 9 0 1 1060745282 0 0 [0 0 1 21 2] [0 0 0 20 2] ]
r 1.021904495 _21_ RTR  --- 2 DYMOUM 60 [0 ffffffff 16 800] ------- [22:255 -1:255 1 0] [ RE 0 0 40 9 0 1 1060745282 0 0 [0 0 1 21 2] [0 0 0 22 2] ]
r 1.021904591 _23_ RTR  --- 2 DYMOUM 60 [0 ffffffff 16 800] ------- [22:255 -1:255 1 0] [ RE 0 0 40 9 0 1 1060745282 0 0 [0 0 1 21 2] [0 0 0 22 2] ]
r 1.021904697 _15_ RTR  --- 2 DYMOUM 60 [0 ffffffff 16 800] ------- [22:255 -1:255 1 0] [ RE 0 0 40 9 0 1 1060745282 0 0 [0 0 1 21 2] [0 0 0 22 2] ]
r 1.021904895 _24_ RTR  --- 2 DYMOUM 60 [0 ffffffff 16 800] ------- [22:255 -1:255 1 0] [ RE 0 0 40 9 0 1 1060745282 0 0 [0 0 1 21 2] [0 0 0 22 2] ]
r 1.021904945 _20_ RTR  --- 2 DYMOUM 60 [0 ffffffff 16 800] ------- [22:255 -1:255 1 0] [ RE 0 0 40 9 0 1 1060745282 0 0 [0 0 1 21 2] [0 0 0 22 2] ]
r 1.021905050 _9_ RTR  --- 2 DYMOUM 60 [0 ffffffff 16 800] ------- [22:255 -1:255 1 0] [ RE 0 0 40 9 0 1 1060745282 0 0 [0 0 1 21 2] [0 0 0 22 2] ]
r 1.022317797 _16_ RTR  --- 25 DYMOUM 108 [0 ffffffff 11 800] ------- [17:255 -1:255 1 0] [ RE 0 0 88 5 0 1 -1495579636 0 0 [0 0 5 21 2] [0 0 4 23 2] [0 0 3 9 2] [0 0 2 18 2] [0 0 1 8 2] [0 0 0 17 2] ]
r 1.022317942 _2_ RTR  --- 25 DYMOUM 108 [0 ffffffff 11 800] ------- [17:255 -1:255 1 0] [ RE 0 0 88 5 0 1 -1495579636 0 0 [0 0 5 21 2] [0 0 4 23 2] [0 0 3 9 2] [0 0 2 18 2] [0 0 1 8 2] [0 0 0 17 2] ]
r 1.022318234 _11_ RTR  --- 25 DYMOUM 108 [0 ffffffff 11 800] ------- [17:255 -1:255 1 0] [ RE 0 0 88 5 0 1 -1495579636 0 0 [0 0 5 21 2] [0 0 4 23 2] [0 0 3 9 2] [0 0 2 18 2] [0 0 1 8 2] [0 0 0 17 2] ]
r 1.023876240 _5_ RTR  --- 24 DYMOUM 108 [0 ffffffff 2 800] ------- [2:255 -1:255 1 0] [ RE 0 0 88 5 0 1 -1495579636 0 0 [0 0 5 21 2] [0 0 4 23 2] [0 0 3 9 2] [0 0 2 18 2] [0 0 1 8 2] [0 0 0 2 2] ]
r 1.023876354 _3_ RTR  --- 24 DYMOUM 108 [0 ffffffff 2 800] ------- [2:255 -1:255 1 0] [ RE 0 0 88 5 0 1 -1495579636 0 0 [0 0 5 21 2] [0 0 4 23 2] [0 0 3 9 2] [0 0 2 18 2] [0 0 1 8 2] [0 0 0 2 2] ]
r 1.023876383 _17_ RTR  --- 24 DYMOUM 108 [0 ffffffff 2 800] ------- [2:255 -1:255 1 0] [ RE 0 0 88 5 0 1 -1495579636 0 0 [0 0 5 21 2] [0 0 4 23 2] [0 0 3 9 2] [0 0 2 18 2] [0 0 1 8 2] [0 0 0 2 2] ]
r 1.023876441 _0_ RTR  --- 24 DYMOUM 108 [0 ffffffff 2 800] ------- [2:255 -1:255 1 0] [ RE 0 0 88 5 0 1 -1495579636 0 0 [0 0 5 21 2] [0 0 4 23 2] [0 0 3 9 2] [0 0 2 18 2] [0 0 1 8 2] [0 0 0 2 2] ]
r 1.023876524 _8_ RTR  --- 24 DYMOUM 108 [0 ffffffff 2 800] ------- [2:255 -1:255 1 0] [ RE 0 0 88 5 0 1 -1495579636 0 0 [0 0 5 21 2] [0 0 4 23 2] [0 0 3 9 2] [0 0 2 18 2] [0 0 1 8 2] [0 0 0 2 2] ]
r 1.023876568 _16_ RTR  --- 24 DYMOUM 108 [0 ffffffff 2 800] ------- [2:255 -1:255 1 0] [ RE 0 0 88 5 0 1 -1495579636 0 0 [0 0 5 21 2] [0 0 4 23 2] [0 0 3 9 2] [0 0 2 18 2] [0 0 1 8 2] [0 0 0 2 2] ]
r 1.023876754 _7_ RTR  --- 24 DYMOUM 108 [0 ffffffff 2 800] ------- [2:255 -1:255 1 0] [ RE 0 0 88 5 0 1 -1495579636 0 0 [0 0 5 21 2] [0 0 4 23 2] [0 0 3 9 2] [0 0 2 18 2] [0 0 1 8 2] [0 0 0 2 2] ]
r 1.023876770 _4_ RTR  --- 24 DYMOUM 108 [0 ffffffff 2 800] ------- [2:255 -1:255 1 0] [ RE 0 0 88 5 0 1 -1495579636 0 0 [0 0 5 21 2] [0 0 4 23 2] [0 0 3 9 2] [0 0 2 18 2] [0 0 1 8 2] [0 0 0 2 2] ]
r 1.027716223 _8_ RTR  --- 29 DYMOUM 84 [0 ffffffff 5 800] ------- [5:255 -1:255 1 0] [ RE 0 0 64 7 0 1 -1747356453 0 0 [0 0 3 21 2] [0 0 2 15 2] [0 0 1 18 3] [0 0 0 5 3] ]
r 1.027716237 _2_ RTR  --- 29 DYMOUM 84 [0 ffffffff 5 800] ------- [5:255 -1:255 1 0] [ RE 0 0 64 7 0 1 -1747356453 0 0 [0 0 3 21 2] [0 0 2 15 2] [0 0 1 18 3] [0 0 0 5 3] ]
r 1.027716371 _17_ RTR  --- 29 DYMOUM 84 [0 ffffffff 5 800] ------- [5:255 -1:255 1 0] [ RE 0 0 64 7 0 1 -1747356453 0 0 [0 0 3 21 2] [0 0 2 15 2] [0 0 1 18 3] [0 0 0 5 3] ]
s 1.027716371 _17_ RTR  --- 35 DYMOUM 96 [0 0 0 0] ------- [17:255 -1:255 1 0] [ RE 0 0 76 6 0 1 396546651 0 0 [0 0 4 21 2] [0 0 3 15 2] [0 0 2 18 3] [0 0 1 5 3] [0 0 0 17 3] ]
r 1.027716392 _3_ RTR  --- 29 DYMOUM 84 [0 ffffffff 5 800] ------- [5:255 -1:255 1 0] [ RE 0 0 64 7 0 1 -1747356453 0 0 [0 0 3 21 2] [0 0 2 15 2] [0 0 1 18 3] [0 0 0 5 3] ]
r 1.027716395 _16_ RTR  --- 29 DYMOUM 84 [0 ffffffff 5 800] ------- [5:255 -1:255 1 0] [ RE 0 0 64 7 0 1 -1747356453 0 0 [0 0 3 21 2] [0 0 2 15 2] [0 0 1 18 3] [0 0 0 5 3] ]
s 1.027716395 _16_ RTR  --- 36 DYMOUM 48 [0 0 0 0] ------- [16:255 5:255 1 5] [ RE 0 0 28 10 0 0 21 1002 4 [0 0 0 396546651 3] ]
r 1.027716488 _7_ RTR  --- 29 DYMOUM 84 [0 ffffffff 5 800] ------- [5:255 -1:255 1 0] [ RE 0 0 64 7 0 1 -1747356453 0 0 [0 0 3 21 2] [0 0 2 15 2] [0 0 1 18 3] [0 0 0 5 3] ]