s 0.000000000 _0_ AGT  --- 0 cbr 1000 [0 0 0 0] ------- [0:0 19:0 32 0] [0] 0 0
r 0.000000000 _0_ RTR  --- 0 cbr 1000 [0 0 0 0] ------- [0:0 19:0 32 0] [0] 0 0
v 0 eval {set sim_annotation {MOBILE NODE MOVEMENTS}}
s 0.000000000 _0_ RTR  --- 0 AODV 48 [0 0 0 0] ------- [0:255 -1:255 30 0] [0x2 1 1 [19 0] [0 4]] (REQUEST)
r 0.001148000 _8_ RTR  --- 0 AODV 48 [0 ffffffff 0 800] ------- [0:255 -1:255 30 0] [0x2 1 1 [19 0] [0 4]] (REQUEST)
s 0.001148000 _8_ RTR  --- 0 AODV 44 [0 0 0 0] ------- [8:255 0:255 30 0] [0x4 1 [19 902] 10.000000] (REPLY)
r 0.001148520 _13_ RTR  --- 0 AODV 48 [0 ffffffff 0 800] ------- [0:255 -1:255 30 0] [0x2 1 1 [19 0] [0 4]] (REQUEST)
r 0.001148527 _16_ RTR  --- 0 AODV 48 [0 ffffffff 0 800] ------- [0:255 -1:255 30 0] [0x2 1 1 [19 0] [0 4]] (REQUEST)
r 0.001148533 _19_ RTR  --- 0 AODV 48 [0 ffffffff 0 800] ------- [0:255 -1:255 30 0] [0x2 1 1 [19 0] [0 4]] (REQUEST)
s 0.001148533 _19_ RTR  --- 0 AODV 44 [0 0 0 0] ------- [19:255 0:255 30 0] [0x4 1 [19 4] 10.000000] (REPLY)
r 0.001148555 _15_ RTR  --- 0 AODV 48 [0 ffffffff 0 800] ------- [0:255 -1:255 30 0] [0x2 1 1 [19 0] [0 4]] (REQUEST)
r 0.001148717 _18_ RTR  --- 0 AODV 48 [0 ffffffff 0 800] ------- [0:255 -1:255 30 0] [0x2 1 1 [19 0] [0 4]] (REQUEST)
r 0.001148737 _10_ RTR  --- 0 AODV 48 [0 ffffffff 0 800] ------- [0:255 -1:255 30 0] [0x2 1 1 [19 0] [0 4]] (REQUEST)
r 0.001148762 _20_ RTR  --- 0 AODV 48 [0 ffffffff 0 800] ------- [0:255 -1:255 30 0] [0x2 1 1 [19 0] [0 4]] (REQUEST)
r 0.001148786 _9_ RTR  --- 0 AODV 48 [0 ffffffff 0 800] ------- [0:255 -1:255 30 0] [0x2 1 1 [19 0] [0 4]] (REQUEST)
r 0.001148865 _23_ RTR  --- 0 AODV 48 [0 ffffffff 0 800] ------- [0:255 -1:255 30 0] [0x2 1 1 [19 0] [0 4]] (REQUEST)
r 0.001148927 _17_ RTR  --- 0 AODV 48 [0 ffffffff 0 800] ------- [0:255 -1:255 30 0] [0x2 1 1 [19 0] [0 4]] (REQUEST)
r 0.001149047 _5_ RTR  --- 0 AODV 48 [0 ffffffff 0 800] ------- [0:255 -1:255 30 0] [0x2 1 1 [19 0] [0 4]] (REQUEST)
r 0.001149112 _11_ RTR  --- 0 AODV 48 [0 ffffffff 0 800] ------- [0:255 -1:255 30 0] [0x2 1 1 [19 0] [0 4]] (REQUEST)
s 0.001149112 _11_ RTR  --- 0 AODV 44 [0 0 0 0] ------- [11:255 0:255 30 0] [0x4 1 [19 902] 10.000000] (REPLY)
r 0.001149128 _12_ RTR  --- 0 AODV 48 [0 ffffffff 0 800] ------- [0:255 -1:255 30 0] [0x2 1 1 [19 0] [0 4]] (REQUEST)
r 0.001149182 _14_ RTR  --- 0 AODV 48 [0 ffffffff 0 800] ------- [0:255 -1:255 30 0] [0x2 1 1 [19 0] [0 4]] (REQUEST)
r 0.001149207 _7_ RTR  --- 0 AODV 48 [0 ffffffff 0 800] ------- [0:255 -1:255 30 0] [0x2 1 1 [19 0] [0 4]] (REQUEST)
r 0.001149278 _6_ RTR  --- 0 AODV 48 [0 ffffffff 0 800] ------- [0:255 -1:255 30 0] [0x2 1 1 [19 0] [0 4]] (REQUEST)
r 0.001149330 _4_ RTR  --- 0 AODV 48 [0 ffffffff 0 800] ------- [0:255 -1:255 30 0] [0x2 1 1 [19 0] [0 4]] (REQUEST)
r 0.001149435 _21_ RTR  --- 0 AODV 48 [0 ffffffff 0 800] ------- [0:255 -1:255 30 0] [0x2 1 1 [19 0] [0 4]] (REQUEST)
r 0.001149491 _22_ RTR  --- 0 AODV 48 [0 ffffffff 0 800] ------- [0:255 -1:255 30 0] [0x2 1 1 [19 0] [0 4]] (REQUEST)
r 0.001149591 _3_ RTR  --- 0 AODV 48 [0 ffffffff 0 800] ------- [0:255 -1:255 30 0] [0x2 1 1 [19 0] [0 4]] (REQUEST)
r 0.001151110 _1_ RTR  --- 0 AODV 48 [0 ffffffff 0 800] ------- [0:255 -1:255 30 0] [0x2 1 1 [19 0] [0 4]] (REQUEST)
r 0.001151110 _2_ RTR  --- 0 AODV 48 [0 ffffffff 0 800] ------- [0:255 -1:255 30 0] [0x2 1 1 [19 0] [0 4]] (REQUEST)
s 0.001151110 _2_ RTR  --- 0 AODV 44 [0 0 0 0] ------- [2:255 0:255 30 0] [0x4 1 [19 902] 10.000000] (REPLY)
s 0.001635639 _17_ RTR  --- 0 AODV 48 [0 ffffffff 0 800] ------- [17:255 -1:255 29 0] [0x2 2 1 [19 0] [0 4]] (REQUEST)
s 0.002160202 _23_ RTR  --- 0 AODV 48 [0 ffffffff 0 800] ------- [23:255 -1:255 29 0] [0x2 2 1 [19 0] [0 4]] (REQUEST)
s 0.002931558 _7_ RTR  --- 0 AODV 48 [0 ffffffff 0 800] ------- [7:255 -1:255 29 0] [0x2 2 1 [19 0] [0 4]] (REQUEST)
s 0.003002372 _10_ RTR  --- 0 AODV 48 [0 ffffffff 0 800] ------- [10:255 -1:255 29 0] [0x2 2 1 [19 0] [0 4]] (REQUEST)
s 0.003089437 _14_ RTR  --- 0 AODV 48 [0 ffffffff 0 800] ------- [14:255 -1:255 29 0] [0x2 2 1 [19 0] [0 4]] (REQUEST)
s 0.003325969 _15_ RTR  --- 0 AODV 48 [0 ffffffff 0 800] ------- [15:255 -1:255 29 0] [0x2 2 1 [19 0] [0 4]] (REQUEST)
s 0.003438756 _9_ RTR  --- 0 AODV 48 [0 ffffffff 0 800] ------- [9:255 -1:255 29 0] [0x2 2 1 [19 0] [0 4]] (REQUEST)
s 0.003975894 _6_ RTR  --- 0 AODV 48 [0 ffffffff 0 800] ------- [6:255 -1:255 29 0] [0x2 2 1 [19 0] [0 4]] (REQUEST)
s 0.004957562 _16_ RTR  --- 0 AODV 48 [0 ffffffff 0 800] ------- [16:255 -1:255 29 0] [0x2 2 1 [19 0] [0 4]] (REQUEST)
s 0.005378986 _4_ RTR  --- 0 AODV 48 [0 ffffffff 0 800] ------- [4:255 -1:255 29 0] [0x2 2 1 [19 0] [0 4]] (REQUEST)
r 0.005763995 _15_ RTR  --- 0 AODV 48 [0 ffffffff a 800] ------- [10:255 -1:255 29 0] [0x2 2 1 [19 0] [0 4]] (REQUEST)
r 0.005764099 _11_ RTR  --- 0 AODV 48 [0 ffffffff a 800] ------- [10:255 -1:255 29 0] [0x2 2 1 [19 0] [0 4]] (REQUEST)
r 0.005764100 _16_ RTR  --- 0 AODV 48 [0 ffffffff a 800] ------- [10:255 -1:255 29 0] [0x2 2 1 [19 0] [0 4]] (REQUEST)
r 0.005764366 _17_ RTR  --- 0 AODV 48 [0 ffffffff a 800] ------- [10:255 -1:255 29 0] [0x2 2 1 [19 0] [0 4]] (REQUEST)
r 0.005764586 _18_ RTR  --- 0 AODV 48 [0 ffffffff a 800] ------- [10:255 -1:255 29 0] [0x2 2 1 [19 0] [0 4]] (REQUEST)
r 0.005764643 _19_ RTR  --- 0 AODV 48 [0 ffffffff a 800] ------- [10:255 -1:255 29 0] [0x2 2 1 [19 0] [0 4]] (REQUEST)
s 0.006315647 _22_ RTR  --- 0 AODV 48 [0 ffffffff 0 800] ------- [22:255 -1:255 29 0] [0x2 2 1 [19 0] [0 4]] (REQUEST)
s 0.006547807 _5_ RTR  --- 0 AODV 48 [0 ffffffff 0 800] ------- [5:255 -1:255 29 0] [0x2 2 1 [19 0] [0 4]] (REQUEST)
s 0.006581619 _12_ RTR  --- 0 AODV 48 [0 ffffffff 0 800] ------- [12:255 -1:255 29 0] [0x2 2 1 [19 0] [0 4]] (REQUEST)
r 0.007047660 _7_ RTR  --- 0 AODV 48 [0 ffffffff 9 800] ------- [9:255 -1:255 29 0] [0x2 2 1 [19 0] [0 4]] (REQUEST)
r 0.007047691 _12_ RTR  --- 0 AODV 48 [0 ffffffff 9 800] ------- [9:255 -1:255 29 0] [0x2 2 1 [19 0] [0 4]] (REQUEST)
r 0.007047720 _13_ RTR  --- 0 AODV 48 [0 ffffffff 9 800] ------- [9:255 -1:255 29 0] [0x2 2 1 [19 0] [0 4]] (REQUEST)
r 0.007047898 _15_ RTR  --- 0 AODV 48 [0 ffffffff 9 800] ------- [9:255 -1:255 29 0] [0x2 2 1 [19 0] [0 4]] (REQUEST)
r 0.007047948 _6_ RTR  --- 0 AODV 48 [0 ffffffff 9 800] ------- [9:255 -1:255 29 0] [0x2 2 1 [19 0] [0 4]] (REQUEST)
r 0.007047979 _0_ RTR  --- 0 AODV 48 [0 ffffffff 9 800] ------- [9:255 -1:255 29 0] [0x2 2 1 [19 0] [0 4]] (REQUEST)
r 0.007047979 _8_ RTR  --- 0 AODV 48 [0 ffffffff 9 800] ------- [9:255 -1:255 29 0] [0x2 2 1 [19 0] [0 4]] (REQUEST)
r 0.007048079 _14_ RTR  --- 0 AODV 48 [0 ffffffff 9 800] ------- [9:255 -1:255 29 0] [0x2 2 1 [19 0] [0 4]] (REQUEST)
r 0.007048096 _5_ RTR  --- 0 AODV 48 [0 ffffffff 9 800] ------- [9:255 -1:255 29 0] [0x2 2 1 [19 0] [0 4]] (REQUEST)
r 0.007048204 _20_ RTR  --- 0 AODV 48 [0 ffffffff 9 800] ------- [9:255 -1:255 29 0] [0x2 2 1 [19 0] [0 4]] (REQUEST)
r 0.007048238 _10_ RTR  --- 0 AODV 48 [0 ffffffff 9 800] ------- [9:255 -1:255 29 0] [0x2 2 1 [19 0] [0 4]] (REQUEST)
r 0.007048355 _16_ RTR  --- 0 AODV 48 [0 ffffffff 9 800] ------- [9:255 -1:255 29 0] [0x2 2 1 [19 0] [0 4]] (REQUEST)
r 0.007048461 _3_ RTR  --- 0 AODV 48 [0 ffffffff 9 800] ------- [9:255 -1:255 29 0] [0x2 2 1 [19 0] [0 4]] (REQUEST)
r 0.007048510 _19_ RTR  --- 0 AODV 48 [0 ffffffff 9 800] ------- [9:255 -1:255 29 0] [0x2 2 1 [19 0] [0 4]] (REQUEST)
r 0.007048518 _4_ RTR  --- 0 AODV 48 [0 ffffffff 9 800] ------- [9:255 -1:255 29 0] [0x2 2 1 [19 0] [0 4]] (REQUEST)
r 0.007048566 _23_ RTR  --- 0 AODV 48 [0 ffffffff 9 800] ------- [9:255 -1:255 29 0] [0x2 2 1 [19 0] [0 4]] (REQUEST)
r 0.007048593 _21_ RTR  --- 0 AODV 48 [0 ffffffff 9 800] ------- [9:255 -1:255 29 0] [0x2 2 1 [19 0] [0 4]] (REQUEST)
r 0.007048680 _11_ RTR  --- 0 AODV 48 [0 ffffffff 9 800] ------- [9:255 -1:255 29 0] [0x2 2 1 [19 0] [0 4]] (REQUEST)
r 0.007048686 _18_ RTR  --- 0 AODV 48 [0 ffffffff 9 800] ------- [9:255 -1:255 29 0] [0x2 2 1 [19 0] [0 4]] (REQUEST)
r 0.007048780 _17_ RTR  --- 0 AODV 48 [0 ffffffff 9 800] ------- [9:255 -1:255 29 0] [0x2 2 1 [19 0] [0 4]] (REQUEST)
r 0.007048939 _22_ RTR  --- 0 AODV 48 [0 ffffffff 9 800] ------- [9:255 -1:255 29 0] [0x2 2 1 [19 0] [0 4]] (REQUEST)
r 0.007050830 _1_ RTR  --- 0 AODV 48 [0 ffffffff 9 800] ------- [9:255 -1:255 29 0] [0x2 2 1 [19 0] [0 4]] (REQUEST)
r 0.007050830 _2_ RTR  --- 0 AODV 48 [0 ffffffff 9 800] ------- [9:255 -1:255 29 0] [0x2 2 1 [19 0] [0 4]] (REQUEST)
s 0.007328044 _21_ RTR  --- 0 AODV 48 [0 ffffffff 0 800] ------- [21:255 -1:255 29 0] [0x2 2 1 [19 0] [0 4]] (REQUEST)
s 0.007897002 _3_ RTR  --- 0 AODV 48 [0 ffffffff 0 800] ------- [3:255 -1:255 29 0] [0x2 2 1 [19 0] [0 4]] (REQUEST)
s 0.008269355 _1_ RTR  --- 0 AODV 48 [0 ffffffff 0 800] ------- [1:255 -1:255 29 0] [0x2 2 1 [19 0] [0 4]] (REQUEST)
s 0.008446031 _20_ RTR  --- 0 AODV 48 [0 ffffffff 0 800] ------- [20:255 -1:255 29 0] [0x2 2 1 [19 0] [0 4]] (REQUEST)
s 0.009142875 _13_ RTR  --- 0 AODV 48 [0 ffffffff 0 800] ------- [13:255 -1:255 29 0] [0x2 2 1 [19 0] [0 4]] (REQUEST)
s 0.009263929 _18_ RTR  --- 0 AODV 48 [0 ffffffff 0 800] ------- [18:255 -1:255 29 0] [0x2 2 1 [19 0] [0 4]] (REQUEST)
r 0.009509771 _14_ RTR  --- 0 AODV 48 [0 ffffffff 15 800] ------- [21:255 -1:255 29 0] [0x2 2 1 [19 0] [0 4]] (REQUEST)
r 0.009509796 _22_ RTR  --- 0 AODV 48 [0 ffffffff 15 800] ------- [21:255 -1:255 29 0] [0x2 2 1 [19 0] [0 4]] (REQUEST)
r 0.009509892 _20_ RTR  --- 0 AODV 48 [0 ffffffff 15 800] ------- [21:255 -1:255 29 0] [0x2 2 1 [19 0] [0 4]] (REQUEST)
r 0.009510161 _23_ RTR  --- 0 AODV 48 [0 ffffffff 15 800] ------- [21:255 -1:255 29 0] [0x2 2 1 [19 0] [0 4]] (REQUEST)
r 0.009510212 _13_ RTR  --- 0 AODV 48 [0 ffffffff 15 800] ------- [21:255 -1:255 29 0] [0x2 2 1 [19 0] [0 4]] (REQUEST)
r 0.009510301 _12_ RTR  --- 0 AODV 48 [0 ffffffff 15 800] ------- [21:255 -1:255 29 0] [0x2 2 1 [19 0] [0 4]] (REQUEST)
r 0.009510595 _9_ RTR  --- 0 AODV 48 [0 ffffffff 15 800] ------- [21:255 -1:255 29 0] [0x2 2 1 [19 0] [0 4]] (REQUEST)
r 0.009510630 _8_ RTR  --- 0 AODV 48 [0 ffffffff 15 800] ------- [21:255 -1:255 29 0] [0x2 2 1 [19 0] [0 4]] (REQUEST)
r 0.009510630 _0_ RTR  --- 0 AODV 48 [0 ffffffff 15 800] ------- [21:255 -1:255 29 0] [0x2 2 1 [19 0] [0 4]] (REQUEST)
r 0.009510818 _19_ RTR  --- 0 AODV 48 [0 ffffffff 15 800] ------- [21:255 -1:255 29 0] [0x2 2 1 [19 0] [0 4]] (REQUEST)
r 0.009510961 _7_ RTR  --- 0 AODV 48 [0 ffffffff 15 800] ------- [21:255 -1:255 29 0] [0x2 2 1 [19 0] [0 4]] (REQUEST)
r 0.009511048 _15_ RTR  --- 0 AODV 48 [0 ffffffff 15 800] ------- [21:255 -1:255 29 0] [0x2 2 1 [19 0] [0 4]] (REQUEST)
r 0.009511112 _18_ RTR  --- 0 AODV 48 [0 ffffffff 15 800] ------- [21:255 -1:255 29 0] [0x2 2 1 [19 0] [0 4]] (REQUEST)
r 0.009511144 _16_ RTR  --- 0 AODV 48 [0 ffffffff 15 800] ------- [21:255 -1:255 29 0] [0x2 2 1 [19 0] [0 4]] (REQUEST)
r 0.009511331 _10_ RTR  --- 0 AODV 48 [0 ffffffff 15 800] ------- [21:255 -1:255 29 0] [0x2 2 1 [19 0] [0 4]] (REQUEST)
r 0.009511345 _6_ RTR  --- 0 AODV 48 [0 ffffffff 15 800] ------- [21:255 -1:255 29 0] [0x2 2 1 [19 0] [0 4]] (REQUEST)
r 0.009511435 _5_ RTR  --- 0 AODV 48 [0 ffffffff 15 800] ------- [21:255 -1:255 29 0] [0x2 2 1 [19 0] [0 4]] (REQUEST)
r 0.009511494 _17_ RTR  --- 0 AODV 48 [0 ffffffff 15 800] ------- [21:255 -1:255 29 0] [0x2 2 1 [19 0] [0 4]] (REQUEST)
r 0.009511737 _11_ RTR  --- 0 AODV 48 [0 ffffffff 15 800] ------- [21:255 -1:255 29 0] [0x2 2 1 [19 0] [0 4]] (REQUEST)
r 0.009511776 _1_ RTR  --- 0 AODV 48 [0 ffffffff 15 800] ------- [21:255 -1:255 29 0] [0x2 2 1 [19 0] [0 4]] (REQUEST)
r 0.009511776 _2_ RTR  --- 0 AODV 48 [0 ffffffff 15 800] ------- [21:255 -1:255 29 0] [0x2 2 1 [19 0] [0 4]] (REQUEST)
r 0.009511824 _4_ RTR  --- 0 AODV 48 [0 ffffffff 15 800] ------- [21:255 -1:255 29 0] [0x2 2 1 [19 0] [0 4]] (REQUEST)
r 0.009511860 _3_ RTR  --- 0 AODV 48 [0 ffffffff 15 800] ------- [21:255 -1:255 29 0] [0x2 2 1 [19 0] [0 4]] (REQUEST)
r 0.010448302 _12_ RTR  --- 0 AODV 48 [0 ffffffff e 800] ------- [14:255 -1:255 29 0] [0x2 2 1 [19 0] [0 4]] (REQUEST)
r 0.010448346 _21_ RTR  --- 0 AODV 48 [0 ffffffff e 800] ------- [14:255 -1:255 29 0] [0x2 2 1 [19 0] [0 4]] (REQUEST)
r 0.010448439 _13_ RTR  --- 0 AODV 48 [0 ffffffff e 800] ------- [14:255 -1:255 29 0] [0x2 2 1 [19 0] [0 4]] (REQUEST)
r 0.010448452 _20_ RTR  --- 0 AODV 48 [0 ffffffff e 800] ------- [14:255 -1:255 29 0] [0x2 2 1 [19 0] [0 4]] (REQUEST)
r 0.010448657 _9_ RTR  --- 0 AODV 48 [0 ffffffff e 800] ------- [14:255 -1:255 29 0] [0x2 2 1 [19 0] [0 4]] (REQUEST)
r 0.010448863 _22_ RTR  --- 0 AODV 48 [0 ffffffff e 800] ------- [14:255 -1:255 29 0] [0x2 2 1 [19 0] [0 4]] (REQUEST)
r 0.010448886 _23_ RTR  --- 0 AODV 48 [0 ffffffff e 800] ------- [14:255 -1:255 29 0] [0x2 2 1 [19 0] [0 4]] (REQUEST)
r 0.010448952 _8_ RTR  --- 0 AODV 48 [0 ffffffff e 800] ------- [14:255 -1:255 29 0] [0x2 2 1 [19 0] [0 4]] (REQUEST)
r 0.010448952 _0_ RTR  --- 0 AODV 48 [0 ffffffff e 800] ------- [14:255 -1:255 29 0] [0x2 2 1 [19 0] [0 4]] (REQUEST)
r 0.010448974 _7_ RTR  --- 0 AODV 48 [0 ffffffff e 800] ------- [14:255 -1:255 29 0] [0x2 2 1 [19 0] [0 4]] (REQUEST)
r 0.010449232 _15_ RTR  --- 0 AODV 48 [0 ffffffff e 800] ------- [14:255 -1:255 29 0] [0x2 2 1 [19 0] [0 4]] (REQUEST)
r 0.010449314 _19_ RTR  --- 0 AODV 48 [0 ffffffff e 800] ------- [14:255 -1:255 29 0] [0x2 2 1 [19 0] [0 4]] (REQUEST)
r 0.010449382 _6_ RTR  --- 0 AODV 48 [0 ffffffff e 800] ------- [14:255 -1:255 29 0] [0x2 2 1 [19 0] [0 4]] (REQUEST)
r 0.010449476 _16_ RTR  --- 0 AODV 48 [0 ffffffff e 800] ------- [14:255 -1:255 29 0] [0x2 2 1 [19 0] [0 4]] (REQUEST)
r 0.010449546 _5_ RTR  --- 0 AODV 48 [0 ffffffff e 800] ------- [14:255 -1:255 29 0] [0x2 2 1 [19 0] [0 4]] (REQUEST)
r 0.010449552 _10_ RTR  --- 0 AODV 48 [0 ffffffff e 800] ------- [14:255 -1:255 29 0] [0x2 2 1 [19 0] [0 4]] (REQUEST)
r 0.010449776 _2_ RTR  --- 0 AODV 48 [0 ffffffff 1 800] ------- [1:255 -1:255 29 0] [0x2 2 1 [19 0] [0 4]] (REQUEST)
r 0.010449918 _3_ RTR  --- 0 AODV 48 [0 ffffffff e 800] ------- [14:255 -1:255 29 0] [0x2 2 1 [19 0] [0 4]] (REQUEST)
r 0.010449958 _4_ RTR  --- 0 AODV 48 [0 ffffffff e 800] ------- [14:255 -1:255 29 0] [0x2 2 1 [19 0] [0 4]] (REQUEST)
r 0.011735841 _9_ RTR  --- 0 AODV 48 [0 ffffffff c 800] ------- [12:255 -1:255 29 0] [0x2 2 1 [19 0] [0 4]] (REQUEST)
r 0.011735874 _14_ RTR  --- 0 AODV 48 [0 ffffffff c 800] ------- [12:255 -1:255 29 0] [0x2 2 1 [19 0] [0 4]] (REQUEST)
r 0.011736004 _13_ RTR  --- 0 AODV 48 [0 ffffffff c 800] ------- [12:255 -1:255 29 0] [0x2 2 1 [19 0] [0 4]] (REQUEST)
r 0.011736031 _7_ RTR  --- 0 AODV 48 [0 ffffffff c 800] ------- [12:255 -1:255 29 0] [0x2 2 1 [19 0] [0 4]] (REQUEST)
r 0.011736332 _20_ RTR  --- 0 AODV 48 [0 ffffffff c 800] ------- [12:255 -1:255 29 0] [0x2 2 1 [19 0] [0 4]] (REQUEST)
r 0.011736449 _21_ RTR  --- 0 AODV 48 [0 ffffffff c 800] ------- [12:255 -1:255 29 0] [0x2 2 1 [19 0] [0 4]] (REQUEST)
r 0.011736468 _6_ RTR  --- 0 AODV 48 [0 ffffffff c 800] ------- [12:255 -1:255 29 0] [0x2 2 1 [19 0] [0 4]] (REQUEST)
r 0.011736471 _0_ RTR  --- 0 AODV 48 [0 ffffffff c 800] ------- [12:255 -1:255 29 0] [0x2 2 1 [19 0] [0 4]] (REQUEST)
r 0.011736471 _8_ RTR  --- 0 AODV 48 [0 ffffffff c 800] ------- [12:255 -1:255 29 0] [0x2 2 1 [19 0] [0 4]] (REQUEST)
r 0.011736535 _15_ RTR  --- 0 AODV 48 [0 ffffffff c 800] ------- [12:255 -1:255 29 0] [0x2 2 1 [19 0] [0 4]] (REQUEST)
r 0.011736729 _5_ RTR  --- 0 AODV 48 [0 ffffffff c 800] ------- [12:255 -1:255 29 0] [0x2 2 1 [19 0] [0 4]] (REQUEST)
r 0.011736769 _23_ RTR  --- 0 AODV 48 [0 ffffffff c 800] ------- [12:255 -1:255 29 0] [0x2 2 1 [19 0] [0 4]] (REQUEST)
r 0.011736876 _10_ RTR  --- 0 AODV 48 [0 ffffffff c 800] ------- [12:255 -1:255 29 0] [0x2 2 1 [19 0] [0 4]] (REQUEST)
r 0.011736927 _22_ RTR  --- 0 AODV 48 [0 ffffffff c 800] ------- [12:255 -1:255 29 0] [0x2 2 1 [19 0] [0 4]] (REQUEST)
r 0.011736934 _16_ RTR  --- 0 AODV 48 [0 ffffffff c 800] ------- [12:255 -1:255 29 0] [0x2 2 1 [19 0] [0 4]] (REQUEST)
r 0.011736956 _19_ RTR  --- 0 AODV 48 [0 ffffffff c 800] ------- [12:255 -1:255 29 0] [0x2 2 1 [19 0] [0 4]] (REQUEST)
r 0.011737022 _3_ RTR  --- 0 AODV 48 [0 ffffffff c 800] ------- [12:255 -1:255 29 0] [0x2 2 1 [19 0] [0 4]] (REQUEST)
r 0.011737154 _4_ RTR  --- 0 AODV 48 [0 ffffffff c 800] ------- [12:255 -1:255 29 0] [0x2 2 1 [19 0] [0 4]] (REQUEST)
r 0.011737184 _18_ RTR  --- 0 AODV 48 [0 ffffffff c 800] ------- [12:255 -1:255 29 0] [0x2 2 1 [19 0] [0 4]] (REQUEST)
r 0.011737320 _11_ RTR  --- 0 AODV 48 [0 ffffffff c 800] ------- [12:255 -1:255 29 0] [0x2 2 1 [19 0] [0 4]] (REQUEST)
r 0.011737360 _17_ RTR  --- 0 AODV 48 [0 ffffffff c 800] ------- [12:255 -1:255 29 0] [0x2 2 1 [19 0] [0 4]] (REQUEST)
r 0.011738911 _1_ RTR  --- 0 AODV 48 [0 ffffffff c 800] ------- [12:255 -1:255 29 0] [0x2 2 1 [19 0] [0 4]] (REQUEST)
r 0.011738911 _2_ RTR  --- 0 AODV 48 [0 ffffffff c 800] ------- [12:255 -1:255 29 0] [0x2 2 1 [19 0] [0 4]] (REQUEST)
r 0.012655361 _17_ RTR  --- 0 AODV 48 [0 ffffffff 10 800] ------- [16:255 -1:255 29 0] [0x2 2 1 [19 0] [0 4]] (REQUEST)
r 0.012655379 _10_ RTR  --- 0 AODV 48 [0 ffffffff 10 800] ------- [16:255 -1:255 29 0] [0x2 2 1 [19 0] [0 4]] (REQUEST)
r 0.012655422 _18_ RTR  --- 0 AODV 48 [0 ffffffff 10 800] ------- [16:255 -1:255 29 0] [0x2 2 1 [19 0] [0 4]] (REQUEST)
r 0.012655461 _0_ RTR  --- 0 AODV 48 [0 ffffffff 10 800] ------- [16:255 -1:255 29 0] [0x2 2 1 [19 0] [0 4]] (REQUEST)
r 0.012655461 _8_ RTR  --- 0 AODV 48 [0 ffffffff 10 800] ------- [16:255 -1:255 29 0] [0x2 2 1 [19 0] [0 4]] (REQUEST)
r 0.012655497 _15_ RTR  --- 0 AODV 48 [0 ffffffff 10 800] ------- [16:255 -1:255 29 0] [0x2 2 1 [19 0] [0 4]] (REQUEST)
r 0.012655498 _19_ RTR  --- 0 AODV 48 [0 ffffffff 10 800] ------- [16:255 -1:255 29 0] [0x2 2 1 [19 0] [0 4]] (REQUEST)
r 0.012655584 _11_ RTR  --- 0 AODV 48 [0 ffffffff 10 800] ------- [16:255 -1:255 29 0] [0x2 2 1 [19 0] [0 4]] (REQUEST)
r 0.012655898 _5_ RTR  --- 0 AODV 48 [0 ffffffff 10 800] ------- [16:255 -1:255 29 0] [0x2 2 1 [19 0] [0 4]] (REQUEST)
r 0.012655972 _13_ RTR  --- 0 AODV 48 [0 ffffffff 10 800] ------- [16:255 -1:255 29 0] [0x2 2 1 [19 0] [0 4]] (REQUEST)
r 0.012656010 _4_ RTR  --- 0 AODV 48 [0 ffffffff 10 800] ------- [16:255 -1:255 29 0] [0x2 2 1 [19 0] [0 4]] (REQUEST)
r 0.012656095 _9_ RTR  --- 0 AODV 48 [0 ffffffff 10 800] ------- [16:255 -1:255 29 0] [0x2 2 1 [19 0] [0 4]] (REQUEST)
r 0.012656174 _23_ RTR  --- 0 AODV 48 [0 ffffffff 10 800] ------- [16:255 -1:255 29 0] [0x2 2 1 [19 0] [0 4]] (REQUEST)
r 0.012656194 _20_ RTR  --- 0 AODV 48 [0 ffffffff 10 800] ------- [16:255 -1:255 29 0] [0x2 2 1 [19 0] [0 4]] (REQUEST)
r 0.012656316 _6_ RTR  --- 0 AODV 48 [0 ffffffff 10 800] ------- [16:255 -1:255 29 0] [0x2 2 1 [19 0] [0 4]] (REQUEST)
r 0.012656416 _7_ RTR  --- 0 AODV 48 [0 ffffffff 10 800] ------- [16:255 -1:255 29 0] [0x2 2 1 [19 0] [0 4]] (REQUEST)
r 0.012656440 _3_ RTR  --- 0 AODV 48 [0 ffffffff 10 800] ------- [16:255 -1:255 29 0] [0x2 2 1 [19 0] [0 4]] (REQUEST)
r 0.012656524 _12_ RTR  --- 0 AODV 48 [0 ffffffff 10 800] ------- [16:255 -1:255 29 0] [0x2 2 1 [19 0] [0 4]] (REQUEST)
r 0.012656639 _14_ RTR  --- 0 AODV 48 [0 ffffffff 10 800] ------- [16:255 -1:255 29 0] [0x2 2 1 [19 0] [0 4]] (REQUEST)
r 0.012656867 _22_ RTR  --- 0 AODV 48 [0 ffffffff 10 800] ------- [16:255 -1:255 29 0] [0x2 2 1 [19 0] [0 4]] (REQUEST)
r 0.012656883 _21_ RTR  --- 0 AODV 48 [0 ffffffff 10 800] ------- [16:255 -1:255 29 0] [0x2 2 1 [19 0] [0 4]] (REQUEST)
r 0.012658260 _1_ RTR  --- 0 AODV 48 [0 ffffffff 10 800] ------- [16:255 -1:255 29 0] [0x2 2 1 [19 0] [0 4]] (REQUEST)
r 0.012658260 _2_ RTR  --- 0 AODV 48 [0 ffffffff 10 800] ------- [16:255 -1:255 29 0] [0x2 2 1 [19 0] [0 4]] (REQUEST)
r 0.013574620 _20_ RTR  --- 0 AODV 48 [0 ffffffff 17 800] ------- [23:255 -1:255 29 0] [0x2 2 1 [19 0] [0 4]] (REQUEST)
r 0.013574889 _22_ RTR  --- 0 AODV 48 [0 ffffffff 17 800] ------- [23:255 -1:255 29 0] [0x2 2 1 [19 0] [0 4]] (REQUEST)
r 0.013574930 _19_ RTR  --- 0 AODV 48 [0 ffffffff 17 800] ------- [23:255 -1:255 29 0] [0x2 2 1 [19 0] [0 4]] (REQUEST)
r 0.013575024 _13_ RTR  --- 0 AODV 48 [0 ffffffff 17 800] ------- [23:255 -1:255 29 0] [0x2 2 1 [19 0] [0 4]] (REQUEST)
r 0.013575039 _8_ RTR  --- 0 AODV 48 [0 ffffffff 17 800] ------- [23:255 -1:255 29 0] [0x2 2 1 [19 0] [0 4]] (REQUEST)
r 0.013575039 _0_ RTR  --- 0 AODV 48 [0 ffffffff 17 800] ------- [23:255 -1:255 29 0] [0x2 2 1 [19 0] [0 4]] (REQUEST)
r 0.013575140 _21_ RTR  --- 0 AODV 48 [0 ffffffff 17 800] ------- [23:255 -1:255 29 0] [0x2 2 1 [19 0] [0 4]] (REQUEST)
r 0.013575212 _18_ RTR  --- 0 AODV 48 [0 ffffffff 17 800] ------- [23:255 -1:255 29 0] [0x2 2 1 [19 0] [0 4]] (REQUEST)
r 0.013575290 _14_ RTR  --- 0 AODV 48 [0 ffffffff 17 800] ------- [23:255 -1:255 29 0] [0x2 2 1 [19 0] [0 4]] (REQUEST)
r 0.013575415 _16_ RTR  --- 0 AODV 48 [0 ffffffff 17 800] ------- [23:255 -1:255 29 0] [0x2 2 1 [19 0] [0 4]] (REQUEST)
r 0.013575547 _9_ RTR  --- 0 AODV 48 [0 ffffffff 17 800] ------- [23:255 -1:255 29 0] [0x2 2 1 [19 0] [0 4]] (REQUEST)
r 0.013575592 _15_ RTR  --- 0 AODV 48 [0 ffffffff 17 800] ------- [23:255 -1:255 29 0] [0x2 2 1 [19 0] [0 4]] (REQUEST)
r 0.013575600 _12_ RTR  --- 0 AODV 48 [0 ffffffff 17 800] ------- [23:255 -1:255 29 0] [0x2 2 1 [19 0] [0 4]] (REQUEST)
r 0.013575660 _17_ RTR  --- 0 AODV 48 [0 ffffffff 17 800] ------- [23:255 -1:255 29 0] [0x2 2 1 [19 0] [0 4]] (REQUEST)
r 0.013575755 _10_ RTR  --- 0 AODV 48 [0 ffffffff 17 800] ------- [23:255 -1:255 29 0] [0x2 2 1 [19 0] [0 4]] (REQUEST)
r 0.013576014 _7_ RTR  --- 0 AODV 48 [0 ffffffff 17 800] ------- [23:255 -1:255 29 0] [0x2 2 1 [19 0] [0 4]] (REQUEST)
r 0.013576065 _11_ RTR  --- 0 AODV 48 [0 ffffffff 17 800] ------- [23:255 -1:255 29 0] [0x2 2 1 [19 0] [0 4]] (REQUEST)
r 0.013576077 _5_ RTR  --- 0 AODV 48 [0 ffffffff 17 800] ------- [23:255 -1:255 29 0] [0x2 2 1 [19 0] [0 4]] (REQUEST)
r 0.013576225 _6_ RTR  --- 0 AODV 48 [0 ffffffff 17 800] ------- [23:255 -1:255 29 0] [0x2 2 1 [19 0] [0 4]] (REQUEST)
r 0.013576367 _4_ RTR  --- 0 AODV 48 [0 ffffffff 17 800] ------- [23:255 -1:255 29 0] [0x2 2 1 [19 0] [0 4]] (REQUEST)
r 0.013576457 _1_ RTR  --- 0 AODV 48 [0 ffffffff 17 800] ------- [23:255 -1:255 29 0] [0x2 2 1 [19 0] [0 4]] (REQUEST)
r 0.013576457 _2_ RTR  --- 0 AODV 48 [0 ffffffff 17 800] ------- [23:255 -1:255 29 0] [0x2 2 1 [19 0] [0 4]] (REQUEST)
r 0.013576609 _3_ RTR  --- 0 AODV 48 [0 ffffffff 17 800] ------- [23:255 -1:255 29 0] [0x2 2 1 [19 0] [0 4]] (REQUEST)
r 0.014493507 _19_ RTR  --- 0 AODV 48 [0 ffffffff 12 800] ------- [18:255 -1:255 29 0] [0x2 2 1 [19 0] [0 4]] (REQUEST)
r 0.014493690 _17_ RTR  --- 0 AODV 48 [0 ffffffff 12 800] ------- [18:255 -1:255 29 0] [0x2 2 1 [19 0] [0 4]] (REQUEST)
r 0.014493700 _16_ RTR  --- 0 AODV 48 [0 ffffffff 12 800] ------- [18:255 -1:255 29 0] [0x2 2 1 [19 0] [0 4]] (REQUEST)
r 0.014493929 _8_ RTR  --- 0 AODV 48 [0 ffffffff 12 800] ------- [18:255 -1:255 29 0] [0x2 2 1 [19 0] [0 4]] (REQUEST)
r 0.014493929 _0_ RTR  --- 0 AODV 48 [0 ffffffff 12 800] ------- [18:255 -1:255 29 0] [0x2 2 1 [19 0] [0 4]] (REQUEST)
r 0.014494144 _10_ RTR  --- 0 AODV 48 [0 ffffffff 12 800] ------- [18:255 -1:255 29 0] [0x2 2 1 [19 0] [0 4]] (REQUEST)
r 0.014494230 _15_ RTR  --- 0 AODV 48 [0 ffffffff 12 800] ------- [18:255 -1:255 29 0] [0x2 2 1 [19 0] [0 4]] (REQUEST)
r 0.014494243 _11_ RTR  --- 0 AODV 48 [0 ffffffff 12 800] ------- [18:255 -1:255 29 0] [0x2 2 1 [19 0] [0 4]] (REQUEST)
r 0.014494250 _23_ RTR  --- 0 AODV 48 [0 ffffffff 12 800] ------- [18:255 -1:255 29 0] [0x2 2 1 [19 0] [0 4]] (REQUEST)
r 0.014494414 _13_ RTR  --- 0 AODV 48 [0 ffffffff 12 800] ------- [18:255 -1:255 29 0] [0x2 2 1 [19 0] [0 4]] (REQUEST)
r 0.014494442 _20_ RTR  --- 0 AODV 48 [0 ffffffff 12 800] ------- [18:255 -1:255 29 0] [0x2 2 1 [19 0] [0 4]] (REQUEST)
r 0.014494662 _5_ RTR  --- 0 AODV 48 [0 ffffffff 12 800] ------- [18:255 -1:255 29 0] [0x2 2 1 [19 0] [0 4]] (REQUEST)
r 0.014494704 _9_ RTR  --- 0 AODV 48 [0 ffffffff 12 800] ------- [18:255 -1:255 29 0] [0x2 2 1 [19 0] [0 4]] (REQUEST)
r 0.014494763 _4_ RTR  --- 0 AODV 48 [0 ffffffff 12 800] ------- [18:255 -1:255 29 0] [0x2 2 1 [19 0] [0 4]] (REQUEST)
r 0.014494963 _22_ RTR  --- 0 AODV 48 [0 ffffffff 12 800] ------- [18:255 -1:255 29 0] [0x2 2 1 [19 0] [0 4]] (REQUEST)
r 0.014495030 _14_ RTR  --- 0 AODV 48 [0 ffffffff 12 800] ------- [18:255 -1:255 29 0] [0x2 2 1 [19 0] [0 4]] (REQUEST)
r 0.014495053 _12_ RTR  --- 0 AODV 48 [0 ffffffff 12 800] ------- [18:255 -1:255 29 0] [0x2 2 1 [19 0] [0 4]] (REQUEST)
r 0.014495055 _6_ RTR  --- 0 AODV 48 [0 ffffffff 12 800] ------- [18:255 -1:255 29 0] [0x2 2 1 [19 0] [0 4]] (REQUEST)
r 0.014495091 _7_ RTR  --- 0 AODV 48 [0 ffffffff 12 800] ------- [18:255 -1:255 29 0] [0x2 2 1 [19 0] [0 4]] (REQUEST)
r 0.014495129 _21_ RTR  --- 0 AODV 48 [0 ffffffff 12 800] ------- [18:255 -1:255 29 0] [0x2 2 1 [19 0] [0 4]] (REQUEST)
r 0.014495207 _3_ RTR  --- 0 AODV 48 [0 ffffffff 12 800] ------- [18:255 -1:255 29 0] [0x2 2 1 [19 0] [0 4]] (REQUEST)
r 0.014496118 _1_ RTR  --- 0 AODV 48 [0 ffffffff 12 800] ------- [18:255 -1:255 29 0] [0x2 2 1 [19 0] [0 4]] (REQUEST)
r 0.014496118 _2_ RTR  --- 0 AODV 48 [0 ffffffff 12 800] ------- [18:255 -1:255 29 0] [0x2 2 1 [19 0] [0 4]] (REQUEST)
r 0.015432887 _23_ RTR  --- 0 AODV 48 [0 ffffffff 14 800] ------- [20:255 -1:255 29 0] [0x2 2 1 [19 0] [0 4]] (REQUEST)
r 0.015432934 _13_ RTR  --- 0 AODV 48 [0 ffffffff 14 800] ------- [20:255 -1:255 29 0] [0x2 2 1 [19 0] [0 4]] (REQUEST)
r 0.015433123 _14_ RTR  --- 0 AODV 48 [0 ffffffff 14 800] ------- [20:255 -1:255 29 0] [0x2 2 1 [19 0] [0 4]] (REQUEST)
r 0.015433138 _21_ RTR  --- 0 AODV 48 [0 ffffffff 14 800] ------- [20:255 -1:255 29 0] [0x2 2 1 [19 0] [0 4]] (REQUEST)
r 0.015433204 _8_ RTR  --- 0 AODV 48 [0 ffffffff 14 800] ------- [20:255 -1:255 29 0] [0x2 2 1 [19 0] [0 4]] (REQUEST)
r 0.015433204 _0_ RTR  --- 0 AODV 48 [0 ffffffff 14 800] ------- [20:255 -1:255 29 0] [0x2 2 1 [19 0] [0 4]] (REQUEST)
r 0.015433213 _22_ RTR  --- 0 AODV 48 [0 ffffffff 14 800] ------- [20:255 -1:255 29 0] [0x2 2 1 [19 0] [0 4]] (REQUEST)
r 0.015433380 _19_ RTR  --- 0 AODV 48 [0 ffffffff 14 800] ------- [20:255 -1:255 29 0] [0x2 2 1 [19 0] [0 4]] (REQUEST)
r 0.015433430 _12_ RTR  --- 0 AODV 48 [0 ffffffff 14 800] ------- [20:255 -1:255 29 0] [0x2 2 1 [19 0] [0 4]] (REQUEST)
r 0.015433453 _9_ RTR  --- 0 AODV 48 [0 ffffffff 14 800] ------- [20:255 -1:255 29 0] [0x2 2 1 [19 0] [0 4]] (REQUEST)
r 0.015433672 _18_ RTR  --- 0 AODV 48 [0 ffffffff 14 800] ------- [20:255 -1:255 29 0] [0x2 2 1 [19 0] [0 4]] (REQUEST)
r 0.015433689 _15_ RTR  --- 0 AODV 48 [0 ffffffff 14 800] ------- [20:255 -1:255 29 0] [0x2 2 1 [19 0] [0 4]] (REQUEST)
r 0.015433702 _16_ RTR  --- 0 AODV 48 [0 ffffffff 14 800] ------- [20:255 -1:255 29 0] [0x2 2 1 [19 0] [0 4]] (REQUEST)
r 0.015433907 _7_ RTR  --- 0 AODV 48 [0 ffffffff 14 800] ------- [20:255 -1:255 29 0] [0x2 2 1 [19 0] [0 4]] (REQUEST)
r 0.015433933 _10_ RTR  --- 0 AODV 48 [0 ffffffff 14 800] ------- [20:255 -1:255 29 0] [0x2 2 1 [19 0] [0 4]] (REQUEST)
r 0.015434044 _17_ RTR  --- 0 AODV 48 [0 ffffffff 14 800] ------- [20:255 -1:255 29 0] [0x2 2 1 [19 0] [0 4]] (REQUEST)
r 0.015434136 _5_ RTR  --- 0 AODV 48 [0 ffffffff 14 800] ------- [20:255 -1:255 29 0] [0x2 2 1 [19 0] [0 4]] (REQUEST)
r 0.015434182 _6_ RTR  --- 0 AODV 48 [0 ffffffff 14 800] ------- [20:255 -1:255 29 0] [0x2 2 1 [19 0] [0 4]] (REQUEST)
r 0.015434315 _11_ RTR  --- 0 AODV 48 [0 ffffffff 14 800] ------- [20:255 -1:255 29 0] [0x2 2 1 [19 0] [0 4]] (REQUEST)
r 0.015434484 _4_ RTR  --- 0 AODV 48 [0 ffffffff 14 800] ------- [20:255 -1:255 29 0] [0x2 2 1 [19 0] [0 4]] (REQUEST)
r 0.015434628 _3_ RTR  --- 0 AODV 48 [0 ffffffff 14 800] ------- [20:255 -1:255 29 0] [0x2 2 1 [19 0] [0 4]] (REQUEST)
r 0.015435073 _1_ RTR  --- 0 AODV 48 [0 ffffffff 14 800] ------- [20:255 -1:255 29 0] [0x2 2 1 [19 0] [0 4]] (REQUEST)
r 0.015435073 _2_ RTR  --- 0 AODV 48 [0 ffffffff 14 800] ------- [20:255 -1:255 29 0] [0x2 2 1 [19 0] [0 4]] (REQUEST)
s 0.017857143 _0_ AGT  --- 1 cbr 1000 [0 0 0 0] ------- [0:0 19:0 32 0] [1] 0 0
r 0.017857143 _0_ RTR  --- 1 cbr 1000 [0 0 0 0] ------- [0:0 19:0 32 0] [1] 0 0
r 0.018100677 _4_ RTR  --- 0 AODV 48 [0 ffffffff 5 800] ------- [5:255 -1:255 29 0] [0x2 2 1 [19 0] [0 4]] (REQUEST)
r 0.018100779 _6_ RTR  --- 0 AODV 48 [0 ffffffff 5 800] ------- [5:255 -1:255 29 0] [0x2 2 1 [19 0] [0 4]] (REQUEST)
r 0.018100806 _3_ RTR  --- 0 AODV 48 [0 ffffffff 5 800] ------- [5:255 -1:255 29 0] [0x2 2 1 [19 0] [0 4]] (REQUEST)
r 0.018101126 _7_ RTR  --- 0 AODV 48 [0 ffffffff 5 800] ------- [5:255 -1:255 29 0] [0x2 2 1 [19 0] [0 4]] (REQUEST)
r 0.019039103 _5_ RTR  --- 0 AODV 48 [0 ffffffff 4 800] ------- [4:255 -1:255 29 0] [0x2 2 1 [19 0] [0 4]] (REQUEST)
r 0.019039257 _3_ RTR  --- 0 AODV 48 [0 ffffffff 4 800] ------- [4:255 -1:255 29 0] [0x2 2 1 [19 0] [0 4]] (REQUEST)
r 0.019039317 _10_ RTR  --- 0 AODV 48 [0 ffffffff 4 800] ------- [4:255 -1:255 29 0] [0x2 2 1 [19 0] [0 4]] (REQUEST)
r 0.019039329 _11_ RTR  --- 0 AODV 48 [0 ffffffff 4 800] ------- [4:255 -1:255 29 0] [0x2 2 1 [19 0] [0 4]] (REQUEST)
r 0.019039472 _15_ RTR  --- 0 AODV 48 [0 ffffffff 4 800] ------- [4:255 -1:255 29 0] [0x2 2 1 [19 0] [0 4]] (REQUEST)
r 0.019039554 _6_ RTR  --- 0 AODV 48 [0 ffffffff 4 800] ------- [4:255 -1:255 29 0] [0x2 2 1 [19 0] [0 4]] (REQUEST)
r 0.019039754 _16_ RTR  --- 0 AODV 48 [0 ffffffff 4 800] ------- [4:255 -1:255 29 0] [0x2 2 1 [19 0] [0 4]] (REQUEST)
r 0.019039907 _17_ RTR  --- 0 AODV 48 [0 ffffffff 4 800] ------- [4:255 -1:255 29 0] [0x2 2 1 [19 0] [0 4]] (REQUEST)
r 0.019039960 _7_ RTR  --- 0 AODV 48 [0 ffffffff 4 800] ------- [4:255 -1:255 29 0] [0x2 2 1 [19 0] [0 4]] (REQUEST)
r 0.019040002 _9_ RTR  --- 0 AODV 48 [0 ffffffff 4 800] ------- [4:255 -1:255 29 0] [0x2 2 1 [19 0] [0 4]] (REQUEST)
r 0.019040007 _0_ RTR  --- 0 AODV 48 [0 ffffffff 4 800] ------- [4:255 -1:255 29 0] [0x2 2 1 [19 0] [0 4]] (REQUEST)
r 0.019040007 _8_ RTR  --- 0 AODV 48 [0 ffffffff 4 800] ------- [4:255 -1:255 29 0] [0x2 2 1 [19 0] [0 4]] (REQUEST)