n -t * -s 0  -x 513 -y 517 -Z 0 -z 125  -v circle -c black
n -t * -s 1  -x 1445 -y 474 -Z 0 -z 125  -v circle -c black
n -t * -s 2  -x 36 -y 529 -Z 0 -z 70  -v circle -c black
n -t * -s 3  -x 143 -y 666 -Z 0 -z 70  -v circle -c black
n -t * -s 4  -x 201 -y 552 -Z 0 -z 40  -v circle -c black
n -t * -s 5  -x 147 -y 403 -Z 0 -z 70  -v circle -c black
n -t * -s 6  -x 230 -y 291 -Z 0 -z 70  -v circle -c black
n -t * -s 7  -x 295 -y 419 -Z 0 -z 70  -v circle -c black
n -t * -s 8  -x 363 -y 335 -Z 0 -z 70  -v circle -c black
n -t * -s 9  -x 334 -y 647 -Z 0 -z 70  -v circle -c black
n -t * -s 10  -x 304 -y 777 -Z 0 -z 70  -v circle -c black
n -t * -s 11  -x 412 -y 194 -Z 0 -z 70  -v circle -c black
n -t * -s 12  -x 519 -y 361 -Z 0 -z 70  -v circle -c black
n -t * -s 13  -x 569 -y 167 -Z 0 -z 70  -v circle -c black
n -t * -s 14  -x 349 -y 546 -Z 0 -z 70  -v circle -c black
n -t * -s 15  -x 466 -y 668 -Z 0 -z 70  -v circle -c black
n -t * -s 16  -x 489 -y 794 -Z 0 -z 70  -v circle -c black
n -t * -s 17  -x 606 -y 711 -Z 0 -z 70  -v circle -c black
n -t * -s 18  -x 630 -y 626 -Z 0 -z 70  -v circle -c black
n -t * -s 19  -x 666 -y 347 -Z 0 -z 70  -v circle -c black
n -t * -s 20  -x 741 -y 152 -Z 0 -z 70  -v circle -c black
n -t * -s 21  -x 882 -y 264 -Z 0 -z 70  -v circle -c black
n -t * -s 22  -x 761 -y 441 -Z 0 -z 70  -v circle -c black
V -t * -v 1.0a5 -a 0
W -t * -x 1800 -y 840
A -t * -n 1 -p 0 -o 0xffffffff -c 31 -a 1
A -t * -h 1 -m 2147483647 -s 0
n -t 0 -s 0 -S DLABEL -l "Server1" -L ""
n -t 0 -s 1 -S DLABEL -l "Server2" -L ""
n -t 0 -s 2 -S DLABEL -l "node2" -L ""
n -t 0 -s 3 -S DLABEL -l "node3" -L ""
n -t 0 -s 4 -S DLABEL -l "node4" -L ""
n -t 0 -s 5 -S DLABEL -l "node5" -L ""
n -t 0 -s 6 -S DLABEL -l "node6" -L ""
n -t 0 -s 7 -S DLABEL -l "node7" -L ""
n -t 0 -s 8 -S DLABEL -l "node8" -L ""
n -t 0 -s 9 -S DLABEL -l "node9" -L ""
n -t 0 -s 10 -S DLABEL -l "node10" -L ""
n -t 0 -s 11 -S DLABEL -l "node11" -L ""
n -t 0 -s 12 -S DLABEL -l "node12" -L ""
n -t 0 -s 13 -S DLABEL -l "node13" -L ""
n -t 0 -s 14 -S DLABEL -l "node14" -L ""
n -t 0 -s 15 -S DLABEL -l "node15" -L ""
n -t 0 -s 16 -S DLABEL -l "node16" -L ""
n -t 0 -s 17 -S DLABEL -l "node17" -L ""
n -t 0 -s 18 -S DLABEL -l "node18" -L ""
n -t 0 -s 19 -S DLABEL -l "node19" -L ""
n -t 0 -s 20 -S DLABEL -l "node20" -L ""
n -t 0 -s 20 -S DLABEL -l "node21" -L "node20"
n -t 0 -s 22 -S DLABEL -l "node22" -L ""
n -t 0 -s 2 -S COLOR -c green -o blue -i green -I blue
n -t 0 -s 3 -S COLOR -c green -o green -i green -I green
n -t 0 -s 4 -S COLOR -c green -o green -i green -I green
n -t 0 -s 5 -S COLOR -c green -o blue -i green -I blue
n -t 0 -s 6 -S COLOR -c green -o green -i green -I green
n -t 0 -s 7 -S COLOR -c green -o green -i green -I green
n -t 0 -s 8 -S COLOR -c green -o green -i green -I green
n -t 0 -s 9 -S COLOR -c yellow -o maroon -i yellow -I maroon
n -t 0 -s 10 -S COLOR -c yellow -o yellow -i yellow -I yellow
n -t 0 -s 11 -S COLOR -c yellow -o yellow -i yellow -I yellow
n -t 0 -s 12 -S COLOR -c pink -o blue -i pink -I blue
n -t 0 -s 13 -S COLOR -c pink -o pink -i pink -I pink
n -t 0 -s 14 -S COLOR -c pink -o pink -i pink -I pink
n -t 0 -s 15 -S COLOR -c pink -o pink -i pink -I pink
n -t 0 -s 16 -S COLOR -c pink -o blue -i pink -I blue
n -t 0 -s 17 -S COLOR -c orange -o orange -i orange -I orange
n -t 0 -s 18 -S COLOR -c orange -o orange -i orange -I orange
n -t 0 -s 19 -S COLOR -c orange -o orange -i orange -I orange
n -t 0 -s 20 -S COLOR -c orange -o orange -i orange -I orange
n -t 0 -s 21 -S COLOR -c orange -o orange -i orange -I orange
n -t 0 -s 22 -S COLOR -c orange -o orange -i orange -I orange
n -t 0 -s 0 -S COLOR -c maroon -o maroon -i maroon -I maroon
n -t 0 -s 1 -S COLOR -c maroon -o maroon -i maroon -I maroon
v -t 0 set_rate_ext 0.012500000000000001 1
+ -t 0.000000000 -s 0 -d -1 -p cbr -e 1000 -c 2 -a 0 -i 0 -k AGT 
- -t 0.000000000 -s 0 -d -1 -p cbr -e 1000 -c 2 -a 0 -i 0 -k AGT
h -t 0.000000000 -s 0 -d -1 -p cbr -e 1000 -c 2 -a 0 -i 0 -k AGT
v -t 0 -e sim_annotation 0 1 MOBILE NODE MOVEMENTS
+ -t 0.000000000 -s 0 -d -1 -p DYMOUM -e 48 -c 2 -a 0 -i 1 -k RTR 
- -t 0.000000000 -s 0 -d -1 -p DYMOUM -e 48 -c 2 -a 0 -i 1 -k RTR
h -t 0.000000000 -s 0 -d -1 -p DYMOUM -e 48 -c 2 -a 0 -i 1 -k RTR
r -t 0.001088520 -s 12 -d -1 -p DYMOUM -e 48 -c 2 -a 0 -i 1 -k RTR
+ -t 0.001088520 -s 12 -d -1 -p DYMOUM -e 60 -c 2 -a 0 -i 2 -k RTR 
- -t 0.001088520 -s 12 -d -1 -p DYMOUM -e 60 -c 2 -a 0 -i 2 -k RTR
h -t 0.001088520 -s 12 -d -1 -p DYMOUM -e 60 -c 2 -a 0 -i 2 -k RTR
r -t 0.001088527 -s 15 -d -1 -p DYMOUM -e 48 -c 2 -a 0 -i 1 -k RTR
+ -t 0.001088527 -s 15 -d -1 -p DYMOUM -e 60 -c 2 -a 0 -i 3 -k RTR 
- -t 0.001088527 -s 15 -d -1 -p DYMOUM -e 60 -c 2 -a 0 -i 3 -k RTR
h -t 0.001088527 -s 15 -d -1 -p DYMOUM -e 60 -c 2 -a 0 -i 3 -k RTR
r -t 0.001088533 -s 18 -d -1 -p DYMOUM -e 48 -c 2 -a 0 -i 1 -k RTR
+ -t 0.001088533 -s 18 -d 0 -p DYMOUM -e 48 -c 2 -a 0 -i 4 -k RTR 
- -t 0.001088533 -s 18 -d 0 -p DYMOUM -e 48 -c 2 -a 0 -i 4 -k RTR
h -t 0.001088533 -s 18 -d 0 -p DYMOUM -e 48 -c 2 -a 0 -i 4 -k RTR
r -t 0.001088555 -s 14 -d -1 -p DYMOUM -e 48 -c 2 -a 0 -i 1 -k RTR
+ -t 0.001088555 -s 14 -d -1 -p DYMOUM -e 60 -c 2 -a 0 -i 5 -k RTR 
- -t 0.001088555 -s 14 -d -1 -p DYMOUM -e 60 -c 2 -a 0 -i 5 -k RTR
h -t 0.001088555 -s 14 -d -1 -p DYMOUM -e 60 -c 2 -a 0 -i 5 -k RTR
r -t 0.001088717 -s 17 -d -1 -p DYMOUM -e 48 -c 2 -a 0 -i 1 -k RTR
+ -t 0.001088717 -s 17 -d -1 -p DYMOUM -e 60 -c 2 -a 0 -i 6 -k RTR 
- -t 0.001088717 -s 17 -d -1 -p DYMOUM -e 60 -c 2 -a 0 -i 6 -k RTR
h -t 0.001088717 -s 17 -d -1 -p DYMOUM -e 60 -c 2 -a 0 -i 6 -k RTR
r -t 0.001088737 -s 9 -d -1 -p DYMOUM -e 48 -c 2 -a 0 -i 1 -k RTR
+ -t 0.001088737 -s 9 -d -1 -p DYMOUM -e 60 -c 2 -a 0 -i 7 -k RTR 
- -t 0.001088737 -s 9 -d -1 -p DYMOUM -e 60 -c 2 -a 0 -i 7 -k RTR
h -t 0.001088737 -s 9 -d -1 -p DYMOUM -e 60 -c 2 -a 0 -i 7 -k RTR
r -t 0.001088762 -s 19 -d -1 -p DYMOUM -e 48 -c 2 -a 0 -i 1 -k RTR
+ -t 0.001088762 -s 19 -d -1 -p DYMOUM -e 60 -c 2 -a 0 -i 8 -k RTR 
- -t 0.001088762 -s 19 -d -1 -p DYMOUM -e 60 -c 2 -a 0 -i 8 -k RTR
h -t 0.001088762 -s 19 -d -1 -p DYMOUM -e 60 -c 2 -a 0 -i 8 -k RTR
r -t 0.001088786 -s 8 -d -1 -p DYMOUM -e 48 -c 2 -a 0 -i 1 -k RTR
+ -t 0.001088786 -s 8 -d -1 -p DYMOUM -e 60 -c 2 -a 0 -i 9 -k RTR 
- -t 0.001088786 -s 8 -d -1 -p DYMOUM -e 60 -c 2 -a 0 -i 9 -k RTR
h -t 0.001088786 -s 8 -d -1 -p DYMOUM -e 60 -c 2 -a 0 -i 9 -k RTR
r -t 0.001088797 -s 7 -d -1 -p DYMOUM -e 48 -c 2 -a 0 -i 1 -k RTR
+ -t 0.001088797 -s 7 -d -1 -p DYMOUM -e 60 -c 2 -a 0 -i 10 -k RTR 
- -t 0.001088797 -s 7 -d -1 -p DYMOUM -e 60 -c 2 -a 0 -i 10 -k RTR
h -t 0.001088797 -s 7 -d -1 -p DYMOUM -e 60 -c 2 -a 0 -i 10 -k RTR
r -t 0.001088865 -s 22 -d -1 -p DYMOUM -e 48 -c 2 -a 0 -i 1 -k RTR
+ -t 0.001088865 -s 22 -d -1 -p DYMOUM -e 60 -c 2 -a 0 -i 11 -k RTR 
- -t 0.001088865 -s 22 -d -1 -p DYMOUM -e 60 -c 2 -a 0 -i 11 -k RTR
h -t 0.001088865 -s 22 -d -1 -p DYMOUM -e 60 -c 2 -a 0 -i 11 -k RTR
r -t 0.001088927 -s 16 -d -1 -p DYMOUM -e 48 -c 2 -a 0 -i 1 -k RTR
+ -t 0.001088927 -s 16 -d -1 -p DYMOUM -e 60 -c 2 -a 0 -i 12 -k RTR 
- -t 0.001088927 -s 16 -d -1 -p DYMOUM -e 60 -c 2 -a 0 -i 12 -k RTR
h -t 0.001088927 -s 16 -d -1 -p DYMOUM -e 60 -c 2 -a 0 -i 12 -k RTR
r -t 0.001089047 -s 4 -d -1 -p DYMOUM -e 48 -c 2 -a 0 -i 1 -k RTR
+ -t 0.001089047 -s 4 -d -1 -p DYMOUM -e 60 -c 2 -a 0 -i 13 -k RTR 
- -t 0.001089047 -s 4 -d -1 -p DYMOUM -e 60 -c 2 -a 0 -i 13 -k RTR
h -t 0.001089047 -s 4 -d -1 -p DYMOUM -e 60 -c 2 -a 0 -i 13 -k RTR
r -t 0.001089112 -s 10 -d -1 -p DYMOUM -e 48 -c 2 -a 0 -i 1 -k RTR
+ -t 0.001089112 -s 10 -d -1 -p DYMOUM -e 60 -c 2 -a 0 -i 14 -k RTR 
- -t 0.001089112 -s 10 -d -1 -p DYMOUM -e 60 -c 2 -a 0 -i 14 -k RTR
h -t 0.001089112 -s 10 -d -1 -p DYMOUM -e 60 -c 2 -a 0 -i 14 -k RTR
r -t 0.001089128 -s 11 -d -1 -p DYMOUM -e 48 -c 2 -a 0 -i 1 -k RTR
+ -t 0.001089128 -s 11 -d -1 -p DYMOUM -e 60 -c 2 -a 0 -i 15 -k RTR 
- -t 0.001089128 -s 11 -d -1 -p DYMOUM -e 60 -c 2 -a 0 -i 15 -k RTR
h -t 0.001089128 -s 11 -d -1 -p DYMOUM -e 60 -c 2 -a 0 -i 15 -k RTR
r -t 0.001089182 -s 13 -d -1 -p DYMOUM -e 48 -c 2 -a 0 -i 1 -k RTR
+ -t 0.001089182 -s 13 -d -1 -p DYMOUM -e 60 -c 2 -a 0 -i 16 -k RTR 
- -t 0.001089182 -s 13 -d -1 -p DYMOUM -e 60 -c 2 -a 0 -i 16 -k RTR
h -t 0.001089182 -s 13 -d -1 -p DYMOUM -e 60 -c 2 -a 0 -i 16 -k RTR
r -t 0.001089207 -s 6 -d -1 -p DYMOUM -e 48 -c 2 -a 0 -i 1 -k RTR
+ -t 0.001089207 -s 6 -d -1 -p DYMOUM -e 60 -c 2 -a 0 -i 17 -k RTR 
- -t 0.001089207 -s 6 -d -1 -p DYMOUM -e 60 -c 2 -a 0 -i 17 -k RTR
h -t 0.001089207 -s 6 -d -1 -p DYMOUM -e 60 -c 2 -a 0 -i 17 -k RTR
r -t 0.001089278 -s 5 -d -1 -p DYMOUM -e 48 -c 2 -a 0 -i 1 -k RTR
+ -t 0.001089278 -s 5 -d -1 -p DYMOUM -e 60 -c 2 -a 0 -i 18 -k RTR 
- -t 0.001089278 -s 5 -d -1 -p DYMOUM -e 60 -c 2 -a 0 -i 18 -k RTR
h -t 0.001089278 -s 5 -d -1 -p DYMOUM -e 60 -c 2 -a 0 -i 18 -k RTR
r -t 0.001089330 -s 3 -d -1 -p DYMOUM -e 48 -c 2 -a 0 -i 1 -k RTR
+ -t 0.001089330 -s 3 -d -1 -p DYMOUM -e 60 -c 2 -a 0 -i 19 -k RTR 
- -t 0.001089330 -s 3 -d -1 -p DYMOUM -e 60 -c 2 -a 0 -i 19 -k RTR
h -t 0.001089330 -s 3 -d -1 -p DYMOUM -e 60 -c 2 -a 0 -i 19 -k RTR
r -t 0.001089435 -s 20 -d -1 -p DYMOUM -e 48 -c 2 -a 0 -i 1 -k RTR
+ -t 0.001089435 -s 20 -d -1 -p DYMOUM -e 60 -c 2 -a 0 -i 20 -k RTR 
- -t 0.001089435 -s 20 -d -1 -p DYMOUM -e 60 -c 2 -a 0 -i 20 -k RTR
h -t 0.001089435 -s 20 -d -1 -p DYMOUM -e 60 -c 2 -a 0 -i 20 -k RTR
r -t 0.001089491 -s 21 -d -1 -p DYMOUM -e 48 -c 2 -a 0 -i 1 -k RTR
+ -t 0.001089491 -s 21 -d -1 -p DYMOUM -e 60 -c 2 -a 0 -i 21 -k RTR 
- -t 0.001089491 -s 21 -d -1 -p DYMOUM -e 60 -c 2 -a 0 -i 21 -k RTR
h -t 0.001089491 -s 21 -d -1 -p DYMOUM -e 60 -c 2 -a 0 -i 21 -k RTR
r -t 0.001089591 -s 2 -d -1 -p DYMOUM -e 48 -c 2 -a 0 -i 1 -k RTR
+ -t 0.001089591 -s 2 -d -1 -p DYMOUM -e 60 -c 2 -a 0 -i 22 -k RTR 
- -t 0.001089591 -s 2 -d -1 -p DYMOUM -e 60 -c 2 -a 0 -i 22 -k RTR
h -t 0.001089591 -s 2 -d -1 -p DYMOUM -e 60 -c 2 -a 0 -i 22 -k RTR
r -t 0.001091110 -s 1 -d -1 -p DYMOUM -e 48 -c 2 -a 0 -i 1 -k RTR
+ -t 0.001091110 -s 1 -d -1 -p DYMOUM -e 60 -c 2 -a 0 -i 23 -k RTR 
- -t 0.001091110 -s 1 -d -1 -p DYMOUM -e 60 -c 2 -a 0 -i 23 -k RTR
h -t 0.001091110 -s 1 -d -1 -p DYMOUM -e 60 -c 2 -a 0 -i 23 -k RTR
r -t 0.002153713 -s 11 -d -1 -p DYMOUM -e 60 -c 2 -a 0 -i 16 -k RTR
r -t 0.002153742 -s 6 -d -1 -p DYMOUM -e 60 -c 2 -a 0 -i 18 -k RTR
r -t 0.002153757 -s 20 -d -1 -p DYMOUM -e 60 -c 2 -a 0 -i 16 -k RTR
r -t 0.002153774 -s 7 -d -1 -p DYMOUM -e 60 -c 2 -a 0 -i 18 -k RTR
r -t 0.002153806 -s 4 -d -1 -p DYMOUM -e 60 -c 2 -a 0 -i 18 -k RTR
r -t 0.002153838 -s 2 -d -1 -p DYMOUM -e 60 -c 2 -a 0 -i 18 -k RTR
r -t 0.002153849 -s 12 -d -1 -p DYMOUM -e 60 -c 2 -a 0 -i 16 -k RTR
r -t 0.002153863 -s 19 -d -1 -p DYMOUM -e 60 -c 2 -a 0 -i 16 -k RTR
r -t 0.002154155 -s 3 -d -1 -p DYMOUM -e 60 -c 2 -a 0 -i 18 -k RTR
r -t 0.002154274 -s 21 -d -1 -p DYMOUM -e 60 -c 2 -a 0 -i 16 -k RTR
r -t 0.002154297 -s 22 -d -1 -p DYMOUM -e 60 -c 2 -a 0 -i 16 -k RTR
r -t 0.003534003 -s 13 -d -1 -p DYMOUM -e 60 -c 2 -a 0 -i 20 -k RTR
r -t 0.003534028 -s 21 -d -1 -p DYMOUM -e 60 -c 2 -a 0 -i 20 -k RTR
r -t 0.003534124 -s 19 -d -1 -p DYMOUM -e 60 -c 2 -a 0 -i 20 -k RTR
r -t 0.003534393 -s 22 -d -1 -p DYMOUM -e 60 -c 2 -a 0 -i 20 -k RTR
r -t 0.003534444 -s 12 -d -1 -p DYMOUM -e 60 -c 2 -a 0 -i 20 -k RTR
r -t 0.003534533 -s 11 -d -1 -p DYMOUM -e 60 -c 2 -a 0 -i 20 -k RTR
r -t 0.003534827 -s 8 -d -1 -p DYMOUM -e 60 -c 2 -a 0 -i 20 -k RTR
r -t 0.003534862 -s 0 -d -1 -p DYMOUM -e 60 -c 2 -a 0 -i 20 -k RTR
r -t 0.003535050 -s 18 -d -1 -p DYMOUM -e 60 -c 2 -a 0 -i 20 -k RTR
r -t 0.003535160 -s 7 -d -1 -p DYMOUM -e 60 -c 2 -a 0 -i 20 -k RTR
r -t 0.003535193 -s 6 -d -1 -p DYMOUM -e 60 -c 2 -a 0 -i 20 -k RTR
r -t 0.003535280 -s 14 -d -1 -p DYMOUM -e 60 -c 2 -a 0 -i 20 -k RTR
r -t 0.003535344 -s 17 -d -1 -p DYMOUM -e 60 -c 2 -a 0 -i 20 -k RTR
r -t 0.003535376 -s 15 -d -1 -p DYMOUM -e 60 -c 2 -a 0 -i 20 -k RTR
r -t 0.003535563 -s 9 -d -1 -p DYMOUM -e 60 -c 2 -a 0 -i 20 -k RTR
r -t 0.003535577 -s 5 -d -1 -p DYMOUM -e 60 -c 2 -a 0 -i 20 -k RTR
r -t 0.003535667 -s 4 -d -1 -p DYMOUM -e 60 -c 2 -a 0 -i 20 -k RTR
r -t 0.003535726 -s 16 -d -1 -p DYMOUM -e 60 -c 2 -a 0 -i 20 -k RTR
r -t 0.003535969 -s 10 -d -1 -p DYMOUM -e 60 -c 2 -a 0 -i 20 -k RTR
r -t 0.003536008 -s 1 -d -1 -p DYMOUM -e 60 -c 2 -a 0 -i 20 -k RTR
r -t 0.003536056 -s 3 -d -1 -p DYMOUM -e 60 -c 2 -a 0 -i 20 -k RTR
r -t 0.003536092 -s 2 -d -1 -p DYMOUM -e 60 -c 2 -a 0 -i 20 -k RTR
r -t 0.004548838 -s 19 -d -1 -p DYMOUM -e 60 -c 2 -a 0 -i 11 -k RTR
r -t 0.004549108 -s 21 -d -1 -p DYMOUM -e 60 -c 2 -a 0 -i 11 -k RTR
r -t 0.004549149 -s 18 -d -1 -p DYMOUM -e 60 -c 2 -a 0 -i 11 -k RTR
r -t 0.004549243 -s 12 -d -1 -p DYMOUM -e 60 -c 2 -a 0 -i 11 -k RTR
r -t 0.004549258 -s 0 -d -1 -p DYMOUM -e 60 -c 2 -a 0 -i 11 -k RTR
r -t 0.004549359 -s 20 -d -1 -p DYMOUM -e 60 -c 2 -a 0 -i 11 -k RTR
r -t 0.004549431 -s 17 -d -1 -p DYMOUM -e 60 -c 2 -a 0 -i 11 -k RTR
r -t 0.004549508 -s 13 -d -1 -p DYMOUM -e 60 -c 2 -a 0 -i 11 -k RTR
r -t 0.004549634 -s 15 -d -1 -p DYMOUM -e 60 -c 2 -a 0 -i 11 -k RTR
r -t 0.004549766 -s 8 -d -1 -p DYMOUM -e 60 -c 2 -a 0 -i 11 -k RTR
r -t 0.004549810 -s 14 -d -1 -p DYMOUM -e 60 -c 2 -a 0 -i 11 -k RTR
r -t 0.004549818 -s 11 -d -1 -p DYMOUM -e 60 -c 2 -a 0 -i 11 -k RTR
r -t 0.004549878 -s 16 -d -1 -p DYMOUM -e 60 -c 2 -a 0 -i 11 -k RTR
r -t 0.004549948 -s 7 -d -1 -p DYMOUM -e 60 -c 2 -a 0 -i 11 -k RTR
r -t 0.004549973 -s 9 -d -1 -p DYMOUM -e 60 -c 2 -a 0 -i 11 -k RTR
r -t 0.004550232 -s 6 -d -1 -p DYMOUM -e 60 -c 2 -a 0 -i 11 -k RTR
r -t 0.004550284 -s 10 -d -1 -p DYMOUM -e 60 -c 2 -a 0 -i 11 -k RTR
r -t 0.004550296 -s 4 -d -1 -p DYMOUM -e 60 -c 2 -a 0 -i 11 -k RTR
r -t 0.004550444 -s 5 -d -1 -p DYMOUM -e 60 -c 2 -a 0 -i 11 -k RTR
r -t 0.004550585 -s 3 -d -1 -p DYMOUM -e 60 -c 2 -a 0 -i 11 -k RTR
r -t 0.004550676 -s 1 -d -1 -p DYMOUM -e 60 -c 2 -a 0 -i 11 -k RTR
r -t 0.004550827 -s 2 -d -1 -p DYMOUM -e 60 -c 2 -a 0 -i 11 -k RTR
r -t 0.005564728 -s 9 -d -1 -p DYMOUM -e 60 -c 2 -a 0 -i 14 -k RTR
r -t 0.005564903 -s 16 -d -1 -p DYMOUM -e 60 -c 2 -a 0 -i 14 -k RTR
r -t 0.005564935 -s 15 -d -1 -p DYMOUM -e 60 -c 2 -a 0 -i 14 -k RTR
r -t 0.005564936 -s 3 -d -1 -p DYMOUM -e 60 -c 2 -a 0 -i 14 -k RTR
r -t 0.005565068 -s 14 -d -1 -p DYMOUM -e 60 -c 2 -a 0 -i 14 -k RTR
r -t 0.005565109 -s 4 -d -1 -p DYMOUM -e 60 -c 2 -a 0 -i 14 -k RTR
r -t 0.005565314 -s 17 -d -1 -p DYMOUM -e 60 -c 2 -a 0 -i 14 -k RTR
r -t 0.005565396 -s 0 -d -1 -p DYMOUM -e 60 -c 2 -a 0 -i 14 -k RTR
r -t 0.005565477 -s 7 -d -1 -p DYMOUM -e 60 -c 2 -a 0 -i 14 -k RTR
r -t 0.005565481 -s 18 -d -1 -p DYMOUM -e 60 -c 2 -a 0 -i 14 -k RTR
r -t 0.005565501 -s 2 -d -1 -p DYMOUM -e 60 -c 2 -a 0 -i 14 -k RTR
r -t 0.005565636 -s 5 -d -1 -p DYMOUM -e 60 -c 2 -a 0 -i 14 -k RTR
r -t 0.005565770 -s 8 -d -1 -p DYMOUM -e 60 -c 2 -a 0 -i 14 -k RTR
r -t 0.005565845 -s 12 -d -1 -p DYMOUM -e 60 -c 2 -a 0 -i 14 -k RTR
r -t 0.005565922 -s 6 -d -1 -p DYMOUM -e 60 -c 2 -a 0 -i 14 -k RTR
r -t 0.005566157 -s 19 -d -1 -p DYMOUM -e 60 -c 2 -a 0 -i 14 -k RTR
r -t 0.005566174 -s 22 -d -1 -p DYMOUM -e 60 -c 2 -a 0 -i 14 -k RTR
r -t 0.005566260 -s 11 -d -1 -p DYMOUM -e 60 -c 2 -a 0 -i 14 -k RTR
r -t 0.005566501 -s 13 -d -1 -p DYMOUM -e 60 -c 2 -a 0 -i 14 -k RTR
r -t 0.005566826 -s 20 -d -1 -p DYMOUM -e 60 -c 2 -a 0 -i 14 -k RTR
r -t 0.005566860 -s 21 -d -1 -p DYMOUM -e 60 -c 2 -a 0 -i 14 -k RTR
r -t 0.005568219 -s 1 -d -1 -p DYMOUM -e 60 -c 2 -a 0 -i 14 -k RTR
r -t 0.007338832 -s 10 -d -1 -p DYMOUM -e 60 -c 2 -a 0 -i 12 -k RTR
r -t 0.008738563 -s 5 -d -1 -p DYMOUM -e 60 -c 2 -a 0 -i 17 -k RTR
r -t 0.008738565 -s 8 -d -1 -p DYMOUM -e 60 -c 2 -a 0 -i 17 -k RTR
r -t 0.008738577 -s 7 -d -1 -p DYMOUM -e 60 -c 2 -a 0 -i 17 -k RTR
r -t 0.008738786 -s 11 -d -1 -p DYMOUM -e 60 -c 2 -a 0 -i 17 -k RTR
r -t 0.008738974 -s 4 -d -1 -p DYMOUM -e 60 -c 2 -a 0 -i 17 -k RTR
r -t 0.008739036 -s 14 -d -1 -p DYMOUM -e 60 -c 2 -a 0 -i 17 -k RTR
r -t 0.008739089 -s 12 -d -1 -p DYMOUM -e 60 -c 2 -a 0 -i 17 -k RTR
r -t 0.008739122 -s 2 -d -1 -p DYMOUM -e 60 -c 2 -a 0 -i 17 -k RTR
r -t 0.008739301 -s 13 -d -1 -p DYMOUM -e 60 -c 2 -a 0 -i 17 -k RTR
r -t 0.008739305 -s 0 -d -1 -p DYMOUM -e 60 -c 2 -a 0 -i 17 -k RTR
r -t 0.008739335 -s 9 -d -1 -p DYMOUM -e 60 -c 2 -a 0 -i 17 -k RTR
r -t 0.008739381 -s 3 -d -1 -p DYMOUM -e 60 -c 2 -a 0 -i 17 -k RTR
r -t 0.008739564 -s 19 -d -1 -p DYMOUM -e 60 -c 2 -a 0 -i 17 -k RTR
r -t 0.008739581 -s 15 -d -1 -p DYMOUM -e 60 -c 2 -a 0 -i 17 -k RTR
r -t 0.008739737 -s 10 -d -1 -p DYMOUM -e 60 -c 2 -a 0 -i 17 -k RTR
r -t 0.008739837 -s 18 -d -1 -p DYMOUM -e 60 -c 2 -a 0 -i 17 -k RTR
r -t 0.008739863 -s 20 -d -1 -p DYMOUM -e 60 -c 2 -a 0 -i 17 -k RTR
r -t 0.008739938 -s 22 -d -1 -p DYMOUM -e 60 -c 2 -a 0 -i 17 -k RTR
r -t 0.008739977 -s 17 -d -1 -p DYMOUM -e 60 -c 2 -a 0 -i 17 -k RTR
r -t 0.008739984 -s 16 -d -1 -p DYMOUM -e 60 -c 2 -a 0 -i 17 -k RTR
r -t 0.008740273 -s 21 -d -1 -p DYMOUM -e 60 -c 2 -a 0 -i 17 -k RTR
r -t 0.008742194 -s 1 -d -1 -p DYMOUM -e 60 -c 2 -a 0 -i 17 -k RTR
r -t 0.009793808 -s 4 -d -1 -p DYMOUM -e 60 -c 2 -a 0 -i 19 -k RTR
r -t 0.009793961 -s 2 -d -1 -p DYMOUM -e 60 -c 2 -a 0 -i 19 -k RTR
r -t 0.009794021 -s 9 -d -1 -p DYMOUM -e 60 -c 2 -a 0 -i 19 -k RTR
r -t 0.009794033 -s 10 -d -1 -p DYMOUM -e 60 -c 2 -a 0 -i 19 -k RTR
r -t 0.009794176 -s 14 -d -1 -p DYMOUM -e 60 -c 2 -a 0 -i 19 -k RTR
r -t 0.009794258 -s 5 -d -1 -p DYMOUM -e 60 -c 2 -a 0 -i 19 -k RTR
r -t 0.009794348 -s 7 -d -1 -p DYMOUM -e 60 -c 2 -a 0 -i 19 -k RTR
r -t 0.009794458 -s 15 -d -1 -p DYMOUM -e 60 -c 2 -a 0 -i 19 -k RTR
r -t 0.009794611 -s 16 -d -1 -p DYMOUM -e 60 -c 2 -a 0 -i 19 -k RTR
r -t 0.009794665 -s 6 -d -1 -p DYMOUM -e 60 -c 2 -a 0 -i 19 -k RTR
r -t 0.009794706 -s 8 -d -1 -p DYMOUM -e 60 -c 2 -a 0 -i 19 -k RTR
r -t 0.009794711 -s 0 -d -1 -p DYMOUM -e 60 -c 2 -a 0 -i 19 -k RTR
r -t 0.009794932 -s 17 -d -1 -p DYMOUM -e 60 -c 2 -a 0 -i 19 -k RTR
r -t 0.009794995 -s 12 -d -1 -p DYMOUM -e 60 -c 2 -a 0 -i 19 -k RTR
r -t 0.009795010 -s 18 -d -1 -p DYMOUM -e 60 -c 2 -a 0 -i 19 -k RTR
r -t 0.009795192 -s 11 -d -1 -p DYMOUM -e 60 -c 2 -a 0 -i 19 -k RTR
r -t 0.009795423 -s 19 -d -1 -p DYMOUM -e 60 -c 2 -a 0 -i 19 -k RTR
r -t 0.009795568 -s 13 -d -1 -p DYMOUM -e 60 -c 2 -a 0 -i 19 -k RTR
r -t 0.009795574 -s 22 -d -1 -p DYMOUM -e 60 -c 2 -a 0 -i 19 -k RTR
r -t 0.009796010 -s 20 -d -1 -p DYMOUM -e 60 -c 2 -a 0 -i 19 -k RTR
r -t 0.009796186 -s 21 -d -1 -p DYMOUM -e 60 -c 2 -a 0 -i 19 -k RTR
r -t 0.009797768 -s 1 -d -1 -p DYMOUM -e 60 -c 2 -a 0 -i 19 -k RTR
r -t 0.010828708 -s 8 -d -1 -p DYMOUM -e 60 -c 2 -a 0 -i 10 -k RTR
r -t 0.010828808 -s 14 -d -1 -p DYMOUM -e 60 -c 2 -a 0 -i 10 -k RTR
r -t 0.010828827 -s 6 -d -1 -p DYMOUM -e 60 -c 2 -a 0 -i 10 -k RTR
r -t 0.010828844 -s 5 -d -1 -p DYMOUM -e 60 -c 2 -a 0 -i 10 -k RTR
r -t 0.010828891 -s 4 -d -1 -p DYMOUM -e 60 -c 2 -a 0 -i 10 -k RTR
r -t 0.010829119 -s 9 -d -1 -p DYMOUM -e 60 -c 2 -a 0 -i 10 -k RTR
r -t 0.010829119 -s 12 -d -1 -p DYMOUM -e 60 -c 2 -a 0 -i 10 -k RTR
r -t 0.010829145 -s 0 -d -1 -p DYMOUM -e 60 -c 2 -a 0 -i 10 -k RTR
r -t 0.010829194 -s 11 -d -1 -p DYMOUM -e 60 -c 2 -a 0 -i 10 -k RTR
r -t 0.010829286 -s 2 -d -1 -p DYMOUM -e 60 -c 2 -a 0 -i 10 -k RTR
r -t 0.010829315 -s 3 -d -1 -p DYMOUM -e 60 -c 2 -a 0 -i 10 -k RTR
r -t 0.010829355 -s 15 -d -1 -p DYMOUM -e 60 -c 2 -a 0 -i 10 -k RTR
r -t 0.010829542 -s 10 -d -1 -p DYMOUM -e 60 -c 2 -a 0 -i 10 -k RTR
r -t 0.010829589 -s 13 -d -1 -p DYMOUM -e 60 -c 2 -a 0 -i 10 -k RTR
r -t 0.010829608 -s 19 -d -1 -p DYMOUM -e 60 -c 2 -a 0 -i 10 -k RTR
r -t 0.010829661 -s 18 -d -1 -p DYMOUM -e 60 -c 2 -a 0 -i 10 -k RTR
r -t 0.010829756 -s 16 -d -1 -p DYMOUM -e 60 -c 2 -a 0 -i 10 -k RTR
r -t 0.010829770 -s 17 -d -1 -p DYMOUM -e 60 -c 2 -a 0 -i 10 -k RTR
r -t 0.010829903 -s 22 -d -1 -p DYMOUM -e 60 -c 2 -a 0 -i 10 -k RTR
r -t 0.010830081 -s 20 -d -1 -p DYMOUM -e 60 -c 2 -a 0 -i 10 -k RTR
r -t 0.010830372 -s 21 -d -1 -p DYMOUM -e 60 -c 2 -a 0 -i 10 -k RTR
r -t 0.010832186 -s 1 -d -1 -p DYMOUM -e 60 -c 2 -a 0 -i 10 -k RTR
r -t 0.011863612 -s 19 -d -1 -p DYMOUM -e 60 -c 2 -a 0 -i 2 -k RTR
r -t 0.011863640 -s 0 -d -1 -p DYMOUM -e 60 -c 2 -a 0 -i 2 -k RTR
r -t 0.011863647 -s 8 -d -1 -p DYMOUM -e 60 -c 2 -a 0 -i 2 -k RTR
r -t 0.011863781 -s 11 -d -1 -p DYMOUM -e 60 -c 2 -a 0 -i 2 -k RTR
r -t 0.011863787 -s 13 -d -1 -p DYMOUM -e 60 -c 2 -a 0 -i 2 -k RTR
r -t 0.011863891 -s 7 -d -1 -p DYMOUM -e 60 -c 2 -a 0 -i 2 -k RTR
r -t 0.011863957 -s 14 -d -1 -p DYMOUM -e 60 -c 2 -a 0 -i 2 -k RTR
r -t 0.011863969 -s 22 -d -1 -p DYMOUM -e 60 -c 2 -a 0 -i 2 -k RTR
r -t 0.011864077 -s 18 -d -1 -p DYMOUM -e 60 -c 2 -a 0 -i 2 -k RTR
r -t 0.011864111 -s 6 -d -1 -p DYMOUM -e 60 -c 2 -a 0 -i 2 -k RTR
r -t 0.011864136 -s 20 -d -1 -p DYMOUM -e 60 -c 2 -a 0 -i 2 -k RTR
r -t 0.011864158 -s 15 -d -1 -p DYMOUM -e 60 -c 2 -a 0 -i 2 -k RTR
r -t 0.011864255 -s 9 -d -1 -p DYMOUM -e 60 -c 2 -a 0 -i 2 -k RTR
r -t 0.011864322 -s 17 -d -1 -p DYMOUM -e 60 -c 2 -a 0 -i 2 -k RTR
r -t 0.011864356 -s 4 -d -1 -p DYMOUM -e 60 -c 2 -a 0 -i 2 -k RTR
r -t 0.011864367 -s 5 -d -1 -p DYMOUM -e 60 -c 2 -a 0 -i 2 -k RTR
r -t 0.011864372 -s 21 -d -1 -p DYMOUM -e 60 -c 2 -a 0 -i 2 -k RTR
r -t 0.011864566 -s 16 -d -1 -p DYMOUM -e 60 -c 2 -a 0 -i 2 -k RTR
r -t 0.011864680 -s 10 -d -1 -p DYMOUM -e 60 -c 2 -a 0 -i 2 -k RTR
r -t 0.011864733 -s 3 -d -1 -p DYMOUM -e 60 -c 2 -a 0 -i 2 -k RTR
r -t 0.011864824 -s 2 -d -1 -p DYMOUM -e 60 -c 2 -a 0 -i 2 -k RTR
r -t 0.011866229 -s 1 -d -1 -p DYMOUM -e 60 -c 2 -a 0 -i 2 -k RTR
r -t 0.012898782 -s 3 -d -1 -p DYMOUM -e 60 -c 2 -a 0 -i 13 -k RTR
r -t 0.012898850 -s 14 -d -1 -p DYMOUM -e 60 -c 2 -a 0 -i 13 -k RTR
r -t 0.012898884 -s 5 -d -1 -p DYMOUM -e 60 -c 2 -a 0 -i 13 -k RTR
r -t 0.012898899 -s 7 -d -1 -p DYMOUM -e 60 -c 2 -a 0 -i 13 -k RTR
r -t 0.012898901 -s 9 -d -1 -p DYMOUM -e 60 -c 2 -a 0 -i 13 -k RTR
r -t 0.012898911 -s 2 -d -1 -p DYMOUM -e 60 -c 2 -a 0 -i 13 -k RTR
r -t 0.012899181 -s 10 -d -1 -p DYMOUM -e 60 -c 2 -a 0 -i 13 -k RTR
r -t 0.012899231 -s 6 -d -1 -p DYMOUM -e 60 -c 2 -a 0 -i 13 -k RTR
r -t 0.012899259 -s 8 -d -1 -p DYMOUM -e 60 -c 2 -a 0 -i 13 -k RTR
r -t 0.012899320 -s 15 -d -1 -p DYMOUM -e 60 -c 2 -a 0 -i 13 -k RTR
r -t 0.012899403 -s 0 -d -1 -p DYMOUM -e 60 -c 2 -a 0 -i 13 -k RTR
r -t 0.012899593 -s 12 -d -1 -p DYMOUM -e 60 -c 2 -a 0 -i 13 -k RTR
r -t 0.012899610 -s 16 -d -1 -p DYMOUM -e 60 -c 2 -a 0 -i 13 -k RTR
r -t 0.012899741 -s 11 -d -1 -p DYMOUM -e 60 -c 2 -a 0 -i 13 -k RTR
r -t 0.012899806 -s 17 -d -1 -p DYMOUM -e 60 -c 2 -a 0 -i 13 -k RTR
r -t 0.012899807 -s 18 -d -1 -p DYMOUM -e 60 -c 2 -a 0 -i 13 -k RTR
r -t 0.012900050 -s 19 -d -1 -p DYMOUM -e 60 -c 2 -a 0 -i 13 -k RTR
r -t 0.012900131 -s 13 -d -1 -p DYMOUM -e 60 -c 2 -a 0 -i 13 -k RTR
r -t 0.012900259 -s 22 -d -1 -p DYMOUM -e 60 -c 2 -a 0 -i 13 -k RTR
r -t 0.012900596 -s 20 -d -1 -p DYMOUM -e 60 -c 2 -a 0 -i 13 -k RTR
r -t 0.012900821 -s 21 -d -1 -p DYMOUM -e 60 -c 2 -a 0 -i 13 -k RTR
r -t 0.012902511 -s 1 -d -1 -p DYMOUM -e 60 -c 2 -a 0 -i 13 -k RTR
r -t 0.013913190 -s 9 -d -1 -p DYMOUM -e 60 -c 2 -a 0 -i 5 -k RTR
r -t 0.013913310 -s 7 -d -1 -p DYMOUM -e 60 -c 2 -a 0 -i 5 -k RTR
r -t 0.013913343 -s 4 -d -1 -p DYMOUM -e 60 -c 2 -a 0 -i 5 -k RTR
r -t 0.013913405 -s 0 -d -1 -p DYMOUM -e 60 -c 2 -a 0 -i 5 -k RTR
r -t 0.013913413 -s 15 -d -1 -p DYMOUM -e 60 -c 2 -a 0 -i 5 -k RTR
r -t 0.013913555 -s 8 -d -1 -p DYMOUM -e 60 -c 2 -a 0 -i 5 -k RTR
r -t 0.013913634 -s 10 -d -1 -p DYMOUM -e 60 -c 2 -a 0 -i 5 -k RTR
r -t 0.013913644 -s 3 -d -1 -p DYMOUM -e 60 -c 2 -a 0 -i 5 -k RTR
r -t 0.013913675 -s 5 -d -1 -p DYMOUM -e 60 -c 2 -a 0 -i 5 -k RTR
r -t 0.013913687 -s 12 -d -1 -p DYMOUM -e 60 -c 2 -a 0 -i 5 -k RTR
r -t 0.013913788 -s 6 -d -1 -p DYMOUM -e 60 -c 2 -a 0 -i 5 -k RTR
r -t 0.013913799 -s 16 -d -1 -p DYMOUM -e 60 -c 2 -a 0 -i 5 -k RTR
r -t 0.013913824 -s 18 -d -1 -p DYMOUM -e 60 -c 2 -a 0 -i 5 -k RTR
r -t 0.013913868 -s 17 -d -1 -p DYMOUM -e 60 -c 2 -a 0 -i 5 -k RTR
r -t 0.013913895 -s 2 -d -1 -p DYMOUM -e 60 -c 2 -a 0 -i 5 -k RTR
r -t 0.013914042 -s 11 -d -1 -p DYMOUM -e 60 -c 2 -a 0 -i 5 -k RTR
r -t 0.013914097 -s 19 -d -1 -p DYMOUM -e 60 -c 2 -a 0 -i 5 -k RTR
r -t 0.013914267 -s 22 -d -1 -p DYMOUM -e 60 -c 2 -a 0 -i 5 -k RTR
r -t 0.013914310 -s 13 -d -1 -p DYMOUM -e 60 -c 2 -a 0 -i 5 -k RTR
r -t 0.013914702 -s 20 -d -1 -p DYMOUM -e 60 -c 2 -a 0 -i 5 -k RTR
r -t 0.013914860 -s 21 -d -1 -p DYMOUM -e 60 -c 2 -a 0 -i 5 -k RTR
r -t 0.013916511 -s 1 -d -1 -p DYMOUM -e 60 -c 2 -a 0 -i 5 -k RTR
r -t 0.014927530 -s 14 -d -1 -p DYMOUM -e 60 -c 2 -a 0 -i 7 -k RTR
r -t 0.014927635 -s 10 -d -1 -p DYMOUM -e 60 -c 2 -a 0 -i 7 -k RTR
r -t 0.014927636 -s 15 -d -1 -p DYMOUM -e 60 -c 2 -a 0 -i 7 -k RTR
r -t 0.014927830 -s 3 -d -1 -p DYMOUM -e 60 -c 2 -a 0 -i 7 -k RTR
r -t 0.014927902 -s 16 -d -1 -p DYMOUM -e 60 -c 2 -a 0 -i 7 -k RTR
r -t 0.014927915 -s 7 -d -1 -p DYMOUM -e 60 -c 2 -a 0 -i 9 -k RTR
r -t 0.014928022 -s 6 -d -1 -p DYMOUM -e 60 -c 2 -a 0 -i 9 -k RTR
r -t 0.014928052 -s 11 -d -1 -p DYMOUM -e 60 -c 2 -a 0 -i 9 -k RTR
r -t 0.014928082 -s 12 -d -1 -p DYMOUM -e 60 -c 2 -a 0 -i 9 -k RTR
r -t 0.014928441 -s 13 -d -1 -p DYMOUM -e 60 -c 2 -a 0 -i 9 -k RTR
r -t 0.016327220 -s 8 -d -1 -p DYMOUM -e 60 -c 2 -a 0 -i 15 -k RTR
r -t 0.016327253 -s 13 -d -1 -p DYMOUM -e 60 -c 2 -a 0 -i 15 -k RTR
r -t 0.016327383 -s 12 -d -1 -p DYMOUM -e 60 -c 2 -a 0 -i 15 -k RTR
r -t 0.016327410 -s 6 -d -1 -p DYMOUM -e 60 -c 2 -a 0 -i 15 -k RTR
r -t 0.016327568 -s 7 -d -1 -p DYMOUM -e 60 -c 2 -a 0 -i 15 -k RTR
r -t 0.016327711 -s 19 -d -1 -p DYMOUM -e 60 -c 2 -a 0 -i 15 -k RTR
r -t 0.016327828 -s 20 -d -1 -p DYMOUM -e 60 -c 2 -a 0 -i 15 -k RTR
r -t 0.016327847 -s 5 -d -1 -p DYMOUM -e 60 -c 2 -a 0 -i 15 -k RTR
r -t 0.016327850 -s 0 -d -1 -p DYMOUM -e 60 -c 2 -a 0 -i 15 -k RTR
r -t 0.016327914 -s 14 -d -1 -p DYMOUM -e 60 -c 2 -a 0 -i 15 -k RTR
r -t 0.016328108 -s 4 -d -1 -p DYMOUM -e 60 -c 2 -a 0 -i 15 -k RTR
r -t 0.016328148 -s 22 -d -1 -p DYMOUM -e 60 -c 2 -a 0 -i 15 -k RTR
r -t 0.016328255 -s 9 -d -1 -p DYMOUM -e 60 -c 2 -a 0 -i 15 -k RTR
r -t 0.016328306 -s 21 -d -1 -p DYMOUM -e 60 -c 2 -a 0 -i 15 -k RTR
r -t 0.016328313 -s 15 -d -1 -p DYMOUM -e 60 -c 2 -a 0 -i 15 -k RTR
r -t 0.016328335 -s 18 -d -1 -p DYMOUM -e 60 -c 2 -a 0 -i 15 -k RTR
r -t 0.016328401 -s 2 -d -1 -p DYMOUM -e 60 -c 2 -a 0 -i 15 -k RTR
r -t 0.016328533 -s 3 -d -1 -p DYMOUM -e 60 -c 2 -a 0 -i 15 -k RTR
r -t 0.016328563 -s 17 -d -1 -p DYMOUM -e 60 -c 2 -a 0 -i 15 -k RTR
r -t 0.016328699 -s 10 -d -1 -p DYMOUM -e 60 -c 2 -a 0 -i 15 -k RTR
r -t 0.016328739 -s 16 -d -1 -p DYMOUM -e 60 -c 2 -a 0 -i 15 -k RTR
r -t 0.016330290 -s 1 -d -1 -p DYMOUM -e 60 -c 2 -a 0 -i 15 -k RTR
r -t 0.017342758 -s 9 -d -1 -p DYMOUM -e 60 -c 2 -a 0 -i 3 -k RTR
r -t 0.017342857 -s 18 -d -1 -p DYMOUM -e 60 -c 2 -a 0 -i 6 -k RTR
r -t 0.017342876 -s 14 -d -1 -p DYMOUM -e 60 -c 2 -a 0 -i 3 -k RTR
+ -t 0.017857143 -s 0 -d -1 -p cbr -e 1000 -c 2 -a 0 -i 24 -k AGT 
- -t 0.017857143 -s 0 -d -1 -p cbr -e 1000 -c 2 -a 0 -i 24 -k AGT
h -t 0.017857143 -s 0 -d -1 -p cbr -e 1000 -c 2 -a 0 -i 24 -k AGT
r -t 0.018722285 -s 12 -d -1 -p DYMOUM -e 60 -c 2 -a 0 -i 8 -k RTR
r -t 0.018722555 -s 0 -d -1 -p DYMOUM -e 60 -c 2 -a 0 -i 8 -k RTR
r -t 0.020124427 -s 21 -d -1 -p DYMOUM -e 60 -c 2 -a 0 -i 23 -k RTR
r -t 0.020124706 -s 22 -d -1 -p DYMOUM -e 60 -c 2 -a 0 -i 23 -k RTR
r -t 0.020125004 -s 20 -d -1 -p DYMOUM -e 60 -c 2 -a 0 -i 23 -k RTR
r -t 0.020125055 -s 19 -d -1 -p DYMOUM -e 60 -c 2 -a 0 -i 23 -k RTR
r -t 0.020125187 -s 18 -d -1 -p DYMOUM -e 60 -c 2 -a 0 -i 23 -k RTR
r -t 0.020125330 -s 17 -d -1 -p DYMOUM -e 60 -c 2 -a 0 -i 23 -k RTR
r -t 0.020125518 -s 13 -d -1 -p DYMOUM -e 60 -c 2 -a 0 -i 23 -k RTR
r -t 0.020125533 -s 12 -d -1 -p DYMOUM -e 60 -c 2 -a 0 -i 23 -k RTR
r -t 0.020125534 -s 0 -d -1 -p DYMOUM -e 60 -c 2 -a 0 -i 23 -k RTR
r -t 0.020125750 -s 15 -d -1 -p DYMOUM -e 60 -c 2 -a 0 -i 23 -k RTR
r -t 0.020125784 -s 16 -d -1 -p DYMOUM -e 60 -c 2 -a 0 -i 23 -k RTR
r -t 0.020125991 -s 11 -d -1 -p DYMOUM -e 60 -c 2 -a 0 -i 23 -k RTR
r -t 0.020126060 -s 8 -d -1 -p DYMOUM -e 60 -c 2 -a 0 -i 23 -k RTR
r -t 0.020126085 -s 14 -d -1 -p DYMOUM -e 60 -c 2 -a 0 -i 23 -k RTR
r -t 0.020126172 -s 9 -d -1 -p DYMOUM -e 60 -c 2 -a 0 -i 23 -k RTR
r -t 0.020126261 -s 7 -d -1 -p DYMOUM -e 60 -c 2 -a 0 -i 23 -k RTR
r -t 0.020126359 -s 10 -d -1 -p DYMOUM -e 60 -c 2 -a 0 -i 23 -k RTR
r -t 0.020126519 -s 6 -d -1 -p DYMOUM -e 60 -c 2 -a 0 -i 23 -k RTR
r -t 0.020126578 -s 4 -d -1 -p DYMOUM -e 60 -c 2 -a 0 -i 23 -k RTR
r -t 0.020126757 -s 5 -d -1 -p DYMOUM -e 60 -c 2 -a 0 -i 23 -k RTR
r -t 0.020126811 -s 3 -d -1 -p DYMOUM -e 60 -c 2 -a 0 -i 23 -k RTR
r -t 0.020127124 -s 2 -d -1 -p DYMOUM -e 60 -c 2 -a 0 -i 23 -k RTR
r -t 0.021141679 -s 4 -d -1 -p DYMOUM -e 60 -c 2 -a 0 -i 22 -k RTR
r -t 0.021141684 -s 5 -d -1 -p DYMOUM -e 60 -c 2 -a 0 -i 22 -k RTR
r -t 0.021141703 -s 3 -d -1 -p DYMOUM -e 60 -c 2 -a 0 -i 22 -k RTR
r -t 0.021142062 -s 7 -d -1 -p DYMOUM -e 60 -c 2 -a 0 -i 22 -k RTR
r -t 0.021142147 -s 6 -d -1 -p DYMOUM -e 60 -c 2 -a 0 -i 22 -k RTR
r -t 0.021142169 -s 14 -d -1 -p DYMOUM -e 60 -c 2 -a 0 -i 22 -k RTR
r -t 0.021142192 -s 9 -d -1 -p DYMOUM -e 60 -c 2 -a 0 -i 22 -k RTR
r -t 0.021142341 -s 10 -d -1 -p DYMOUM -e 60 -c 2 -a 0 -i 22 -k RTR
r -t 0.021142391 -s 8 -d -1 -p DYMOUM -e 60 -c 2 -a 0 -i 22 -k RTR
r -t 0.021142630 -s 15 -d -1 -p DYMOUM -e 60 -c 2 -a 0 -i 22 -k RTR
r -t 0.021142714 -s 0 -d -1 -p DYMOUM -e 60 -c 2 -a 0 -i 22 -k RTR
r -t 0.021142803 -s 11 -d -1 -p DYMOUM -e 60 -c 2 -a 0 -i 22 -k RTR
r -t 0.021142829 -s 12 -d -1 -p DYMOUM -e 60 -c 2 -a 0 -i 22 -k RTR
r -t 0.021142873 -s 16 -d -1 -p DYMOUM -e 60 -c 2 -a 0 -i 22 -k RTR
r -t 0.021143118 -s 17 -d -1 -p DYMOUM -e 60 -c 2 -a 0 -i 22 -k RTR
r -t 0.021143130 -s 18 -d -1 -p DYMOUM -e 60 -c 2 -a 0 -i 22 -k RTR
r -t 0.021143272 -s 13 -d -1 -p DYMOUM -e 60 -c 2 -a 0 -i 22 -k RTR
r -t 0.021143310 -s 19 -d -1 -p DYMOUM -e 60 -c 2 -a 0 -i 22 -k RTR
r -t 0.021143558 -s 22 -d -1 -p DYMOUM -e 60 -c 2 -a 0 -i 22 -k RTR
r -t 0.021143789 -s 20 -d -1 -p DYMOUM -e 60 -c 2 -a 0 -i 22 -k RTR
r -t 0.021144079 -s 21 -d -1 -p DYMOUM -e 60 -c 2 -a 0 -i 22 -k RTR
r -t 0.021145824 -s 1 -d -1 -p DYMOUM -e 60 -c 2 -a 0 -i 22 -k RTR