s 0.000000000 _0_ AGT  --- 0 cbr 1000 [0 0 0 0] ------- [0:0 18:0 32 0] [0] 0 0
r 0.000000000 _0_ RTR  --- 0 cbr 1000 [0 0 0 0] ------- [0:0 18:0 32 0] [0] 0 0
v 0 eval {set sim_annotation {MOBILE NODE MOVEMENTS}}
s 0.000000000 _0_ RTR  --- 1 DYMOUM 48 [0 0 0 0] ------- [0:255 -1:255 1 0] [ RE 0 0 28 10 0 1 18 0 0 [0 0 0 0 2] ]
r 0.001088520 _12_ RTR  --- 1 DYMOUM 48 [0 ffffffff 0 800] ------- [0:255 -1:255 1 0] [ RE 0 0 28 10 0 1 18 0 0 [0 0 0 0 2] ]
s 0.001088520 _12_ RTR  --- 2 DYMOUM 60 [0 0 0 0] ------- [12:255 -1:255 1 0] [ RE 0 0 40 9 0 1 18 0 0 [0 0 1 0 2] [0 0 0 12 2] ]
r 0.001088527 _15_ RTR  --- 1 DYMOUM 48 [0 ffffffff 0 800] ------- [0:255 -1:255 1 0] [ RE 0 0 28 10 0 1 18 0 0 [0 0 0 0 2] ]
s 0.001088527 _15_ RTR  --- 3 DYMOUM 60 [0 0 0 0] ------- [15:255 -1:255 1 0] [ RE 0 0 40 9 0 1 18 0 0 [0 0 1 0 2] [0 0 0 15 2] ]
r 0.001088533 _18_ RTR  --- 1 DYMOUM 48 [0 ffffffff 0 800] ------- [0:255 -1:255 1 0] [ RE 0 0 28 10 0 1 18 0 0 [0 0 0 0 2] ]
s 0.001088533 _18_ RTR  --- 4 DYMOUM 48 [0 0 0 0] ------- [18:255 0:255 1 0] [ RE 0 0 28 10 0 0 0 2 1 [0 0 0 18 2] ]
r 0.001088555 _14_ RTR  --- 1 DYMOUM 48 [0 ffffffff 0 800] ------- [0:255 -1:255 1 0] [ RE 0 0 28 10 0 1 18 0 0 [0 0 0 0 2] ]
s 0.001088555 _14_ RTR  --- 5 DYMOUM 60 [0 0 0 0] ------- [14:255 -1:255 1 0] [ RE 0 0 40 9 0 1 18 0 0 [0 0 1 0 2] [0 0 0 14 2] ]
r 0.001088717 _17_ RTR  --- 1 DYMOUM 48 [0 ffffffff 0 800] ------- [0:255 -1:255 1 0] [ RE 0 0 28 10 0 1 18 0 0 [0 0 0 0 2] ]
s 0.001088717 _17_ RTR  --- 6 DYMOUM 60 [0 0 0 0] ------- [17:255 -1:255 1 0] [ RE 0 0 40 9 0 1 18 0 0 [0 0 1 0 2] [0 0 0 17 2] ]
r 0.001088737 _9_ RTR  --- 1 DYMOUM 48 [0 ffffffff 0 800] ------- [0:255 -1:255 1 0] [ RE 0 0 28 10 0 1 18 0 0 [0 0 0 0 2] ]
s 0.001088737 _9_ RTR  --- 7 DYMOUM 60 [0 0 0 0] ------- [9:255 -1:255 1 0] [ RE 0 0 40 9 0 1 18 0 0 [0 0 1 0 2] [0 0 0 9 2] ]
r 0.001088762 _19_ RTR  --- 1 DYMOUM 48 [0 ffffffff 0 800] ------- [0:255 -1:255 1 0] [ RE 0 0 28 10 0 1 18 0 0 [0 0 0 0 2] ]
s 0.001088762 _19_ RTR  --- 8 DYMOUM 60 [0 0 0 0] ------- [19:255 -1:255 1 0] [ RE 0 0 40 9 0 1 18 0 0 [0 0 1 0 2] [0 0 0 19 2] ]
r 0.001088786 _8_ RTR  --- 1 DYMOUM 48 [0 ffffffff 0 800] ------- [0:255 -1:255 1 0] [ RE 0 0 28 10 0 1 18 0 0 [0 0 0 0 2] ]
s 0.001088786 _8_ RTR  --- 9 DYMOUM 60 [0 0 0 0] ------- [8:255 -1:255 1 0] [ RE 0 0 40 9 0 1 18 0 0 [0 0 1 0 2] [0 0 0 8 2] ]
r 0.001088797 _7_ RTR  --- 1 DYMOUM 48 [0 ffffffff 0 800] ------- [0:255 -1:255 1 0] [ RE 0 0 28 10 0 1 18 0 0 [0 0 0 0 2] ]
s 0.001088797 _7_ RTR  --- 10 DYMOUM 60 [0 0 0 0] ------- [7:255 -1:255 1 0] [ RE 0 0 40 9 0 1 18 0 0 [0 0 1 0 2] [0 0 0 7 2] ]
r 0.001088865 _22_ RTR  --- 1 DYMOUM 48 [0 ffffffff 0 800] ------- [0:255 -1:255 1 0] [ RE 0 0 28 10 0 1 18 0 0 [0 0 0 0 2] ]
s 0.001088865 _22_ RTR  --- 11 DYMOUM 60 [0 0 0 0] ------- [22:255 -1:255 1 0] [ RE 0 0 40 9 0 1 18 0 0 [0 0 1 0 2] [0 0 0 22 2] ]
r 0.001088927 _16_ RTR  --- 1 DYMOUM 48 [0 ffffffff 0 800] ------- [0:255 -1:255 1 0] [ RE 0 0 28 10 0 1 18 0 0 [0 0 0 0 2] ]
s 0.001088927 _16_ RTR  --- 12 DYMOUM 60 [0 0 0 0] ------- [16:255 -1:255 1 0] [ RE 0 0 40 9 0 1 18 0 0 [0 0 1 0 2] [0 0 0 16 2] ]
r 0.001089047 _4_ RTR  --- 1 DYMOUM 48 [0 ffffffff 0 800] ------- [0:255 -1:255 1 0] [ RE 0 0 28 10 0 1 18 0 0 [0 0 0 0 2] ]
s 0.001089047 _4_ RTR  --- 13 DYMOUM 60 [0 0 0 0] ------- [4:255 -1:255 1 0] [ RE 0 0 40 9 0 1 18 0 0 [0 0 1 0 2] [0 0 0 4 2] ]
r 0.001089112 _10_ RTR  --- 1 DYMOUM 48 [0 ffffffff 0 800] ------- [0:255 -1:255 1 0] [ RE 0 0 28 10 0 1 18 0 0 [0 0 0 0 2] ]
s 0.001089112 _10_ RTR  --- 14 DYMOUM 60 [0 0 0 0] ------- [10:255 -1:255 1 0] [ RE 0 0 40 9 0 1 18 0 0 [0 0 1 0 2] [0 0 0 10 2] ]
r 0.001089128 _11_ RTR  --- 1 DYMOUM 48 [0 ffffffff 0 800] ------- [0:255 -1:255 1 0] [ RE 0 0 28 10 0 1 18 0 0 [0 0 0 0 2] ]
s 0.001089128 _11_ RTR  --- 15 DYMOUM 60 [0 0 0 0] ------- [11:255 -1:255 1 0] [ RE 0 0 40 9 0 1 18 0 0 [0 0 1 0 2] [0 0 0 11 2] ]
r 0.001089182 _13_ RTR  --- 1 DYMOUM 48 [0 ffffffff 0 800] ------- [0:255 -1:255 1 0] [ RE 0 0 28 10 0 1 18 0 0 [0 0 0 0 2] ]
s 0.001089182 _13_ RTR  --- 16 DYMOUM 60 [0 0 0 0] ------- [13:255 -1:255 1 0] [ RE 0 0 40 9 0 1 18 0 0 [0 0 1 0 2] [0 0 0 13 2] ]
r 0.001089207 _6_ RTR  --- 1 DYMOUM 48 [0 ffffffff 0 800] ------- [0:255 -1:255 1 0] [ RE 0 0 28 10 0 1 18 0 0 [0 0 0 0 2] ]
s 0.001089207 _6_ RTR  --- 17 DYMOUM 60 [0 0 0 0] ------- [6:255 -1:255 1 0] [ RE 0 0 40 9 0 1 18 0 0 [0 0 1 0 2] [0 0 0 6 2] ]
r 0.001089278 _5_ RTR  --- 1 DYMOUM 48 [0 ffffffff 0 800] ------- [0:255 -1:255 1 0] [ RE 0 0 28 10 0 1 18 0 0 [0 0 0 0 2] ]
s 0.001089278 _5_ RTR  --- 18 DYMOUM 60 [0 0 0 0] ------- [5:255 -1:255 1 0] [ RE 0 0 40 9 0 1 18 0 0 [0 0 1 0 2] [0 0 0 5 2] ]
r 0.001089330 _3_ RTR  --- 1 DYMOUM 48 [0 ffffffff 0 800] ------- [0:255 -1:255 1 0] [ RE 0 0 28 10 0 1 18 0 0 [0 0 0 0 2] ]
s 0.001089330 _3_ RTR  --- 19 DYMOUM 60 [0 0 0 0] ------- [3:255 -1:255 1 0] [ RE 0 0 40 9 0 1 18 0 0 [0 0 1 0 2] [0 0 0 3 2] ]
r 0.001089435 _20_ RTR  --- 1 DYMOUM 48 [0 ffffffff 0 800] ------- [0:255 -1:255 1 0] [ RE 0 0 28 10 0 1 18 0 0 [0 0 0 0 2] ]
s 0.001089435 _20_ RTR  --- 20 DYMOUM 60 [0 0 0 0] ------- [20:255 -1:255 1 0] [ RE 0 0 40 9 0 1 18 0 0 [0 0 1 0 2] [0 0 0 20 2] ]
r 0.001089491 _21_ RTR  --- 1 DYMOUM 48 [0 ffffffff 0 800] ------- [0:255 -1:255 1 0] [ RE 0 0 28 10 0 1 18 0 0 [0 0 0 0 2] ]
s 0.001089491 _21_ RTR  --- 21 DYMOUM 60 [0 0 0 0] ------- [21:255 -1:255 1 0] [ RE 0 0 40 9 0 1 18 0 0 [0 0 1 0 2] [0 0 0 21 2] ]
r 0.001089591 _2_ RTR  --- 1 DYMOUM 48 [0 ffffffff 0 800] ------- [0:255 -1:255 1 0] [ RE 0 0 28 10 0 1 18 0 0 [0 0 0 0 2] ]
s 0.001089591 _2_ RTR  --- 22 DYMOUM 60 [0 0 0 0] ------- [2:255 -1:255 1 0] [ RE 0 0 40 9 0 1 18 0 0 [0 0 1 0 2] [0 0 0 2 2] ]
r 0.001091110 _1_ RTR  --- 1 DYMOUM 48 [0 ffffffff 0 800] ------- [0:255 -1:255 1 0] [ RE 0 0 28 10 0 1 18 0 0 [0 0 0 0 2] ]
s 0.001091110 _1_ RTR  --- 23 DYMOUM 60 [0 0 0 0] ------- [1:255 -1:255 1 0] [ RE 0 0 40 9 0 1 18 0 0 [0 0 1 0 2] [0 0 0 1 2] ]
r 0.002153713 _11_ RTR  --- 16 DYMOUM 60 [0 ffffffff d 800] ------- [13:255 -1:255 1 0] [ RE 0 0 40 9 0 1 18 0 0 [0 0 1 0 2] [0 0 0 13 2] ]
r 0.002153742 _6_ RTR  --- 18 DYMOUM 60 [0 ffffffff 5 800] ------- [5:255 -1:255 1 0] [ RE 0 0 40 9 0 1 18 0 0 [0 0 1 0 2] [0 0 0 5 2] ]
r 0.002153757 _20_ RTR  --- 16 DYMOUM 60 [0 ffffffff d 800] ------- [13:255 -1:255 1 0] [ RE 0 0 40 9 0 1 18 0 0 [0 0 1 0 2] [0 0 0 13 2] ]
r 0.002153774 _7_ RTR  --- 18 DYMOUM 60 [0 ffffffff 5 800] ------- [5:255 -1:255 1 0] [ RE 0 0 40 9 0 1 18 0 0 [0 0 1 0 2] [0 0 0 5 2] ]
r 0.002153806 _4_ RTR  --- 18 DYMOUM 60 [0 ffffffff 5 800] ------- [5:255 -1:255 1 0] [ RE 0 0 40 9 0 1 18 0 0 [0 0 1 0 2] [0 0 0 5 2] ]
r 0.002153838 _2_ RTR  --- 18 DYMOUM 60 [0 ffffffff 5 800] ------- [5:255 -1:255 1 0] [ RE 0 0 40 9 0 1 18 0 0 [0 0 1 0 2] [0 0 0 5 2] ]
r 0.002153849 _12_ RTR  --- 16 DYMOUM 60 [0 ffffffff d 800] ------- [13:255 -1:255 1 0] [ RE 0 0 40 9 0 1 18 0 0 [0 0 1 0 2] [0 0 0 13 2] ]
r 0.002153863 _19_ RTR  --- 16 DYMOUM 60 [0 ffffffff d 800] ------- [13:255 -1:255 1 0] [ RE 0 0 40 9 0 1 18 0 0 [0 0 1 0 2] [0 0 0 13 2] ]
r 0.002154155 _3_ RTR  --- 18 DYMOUM 60 [0 ffffffff 5 800] ------- [5:255 -1:255 1 0] [ RE 0 0 40 9 0 1 18 0 0 [0 0 1 0 2] [0 0 0 5 2] ]
r 0.002154274 _21_ RTR  --- 16 DYMOUM 60 [0 ffffffff d 800] ------- [13:255 -1:255 1 0] [ RE 0 0 40 9 0 1 18 0 0 [0 0 1 0 2] [0 0 0 13 2] ]
r 0.002154297 _22_ RTR  --- 16 DYMOUM 60 [0 ffffffff d 800] ------- [13:255 -1:255 1 0] [ RE 0 0 40 9 0 1 18 0 0 [0 0 1 0 2] [0 0 0 13 2] ]
r 0.003534003 _13_ RTR  --- 20 DYMOUM 60 [0 ffffffff 14 800] ------- [20:255 -1:255 1 0] [ RE 0 0 40 9 0 1 18 0 0 [0 0 1 0 2] [0 0 0 20 2] ]
r 0.003534028 _21_ RTR  --- 20 DYMOUM 60 [0 ffffffff 14 800] ------- [20:255 -1:255 1 0] [ RE 0 0 40 9 0 1 18 0 0 [0 0 1 0 2] [0 0 0 20 2] ]
r 0.003534124 _19_ RTR  --- 20 DYMOUM 60 [0 ffffffff 14 800] ------- [20:255 -1:255 1 0] [ RE 0 0 40 9 0 1 18 0 0 [0 0 1 0 2] [0 0 0 20 2] ]
r 0.003534393 _22_ RTR  --- 20 DYMOUM 60 [0 ffffffff 14 800] ------- [20:255 -1:255 1 0] [ RE 0 0 40 9 0 1 18 0 0 [0 0 1 0 2] [0 0 0 20 2] ]
r 0.003534444 _12_ RTR  --- 20 DYMOUM 60 [0 ffffffff 14 800] ------- [20:255 -1:255 1 0] [ RE 0 0 40 9 0 1 18 0 0 [0 0 1 0 2] [0 0 0 20 2] ]
r 0.003534533 _11_ RTR  --- 20 DYMOUM 60 [0 ffffffff 14 800] ------- [20:255 -1:255 1 0] [ RE 0 0 40 9 0 1 18 0 0 [0 0 1 0 2] [0 0 0 20 2] ]
r 0.003534827 _8_ RTR  --- 20 DYMOUM 60 [0 ffffffff 14 800] ------- [20:255 -1:255 1 0] [ RE 0 0 40 9 0 1 18 0 0 [0 0 1 0 2] [0 0 0 20 2] ]
r 0.003534862 _0_ RTR  --- 20 DYMOUM 60 [0 ffffffff 14 800] ------- [20:255 -1:255 1 0] [ RE 0 0 40 9 0 1 18 0 0 [0 0 1 0 2] [0 0 0 20 2] ]
r 0.003535050 _18_ RTR  --- 20 DYMOUM 60 [0 ffffffff 14 800] ------- [20:255 -1:255 1 0] [ RE 0 0 40 9 0 1 18 0 0 [0 0 1 0 2] [0 0 0 20 2] ]
r 0.003535160 _7_ RTR  --- 20 DYMOUM 60 [0 ffffffff 14 800] ------- [20:255 -1:255 1 0] [ RE 0 0 40 9 0 1 18 0 0 [0 0 1 0 2] [0 0 0 20 2] ]
r 0.003535193 _6_ RTR  --- 20 DYMOUM 60 [0 ffffffff 14 800] ------- [20:255 -1:255 1 0] [ RE 0 0 40 9 0 1 18 0 0 [0 0 1 0 2] [0 0 0 20 2] ]
r 0.003535280 _14_ RTR  --- 20 DYMOUM 60 [0 ffffffff 14 800] ------- [20:255 -1:255 1 0] [ RE 0 0 40 9 0 1 18 0 0 [0 0 1 0 2] [0 0 0 20 2] ]
r 0.003535344 _17_ RTR  --- 20 DYMOUM 60 [0 ffffffff 14 800] ------- [20:255 -1:255 1 0] [ RE 0 0 40 9 0 1 18 0 0 [0 0 1 0 2] [0 0 0 20 2] ]
r 0.003535376 _15_ RTR  --- 20 DYMOUM 60 [0 ffffffff 14 800] ------- [20:255 -1:255 1 0] [ RE 0 0 40 9 0 1 18 0 0 [0 0 1 0 2] [0 0 0 20 2] ]
r 0.003535563 _9_ RTR  --- 20 DYMOUM 60 [0 ffffffff 14 800] ------- [20:255 -1:255 1 0] [ RE 0 0 40 9 0 1 18 0 0 [0 0 1 0 2] [0 0 0 20 2] ]
r 0.003535577 _5_ RTR  --- 20 DYMOUM 60 [0 ffffffff 14 800] ------- [20:255 -1:255 1 0] [ RE 0 0 40 9 0 1 18 0 0 [0 0 1 0 2] [0 0 0 20 2] ]
r 0.003535667 _4_ RTR  --- 20 DYMOUM 60 [0 ffffffff 14 800] ------- [20:255 -1:255 1 0] [ RE 0 0 40 9 0 1 18 0 0 [0 0 1 0 2] [0 0 0 20 2] ]
r 0.003535726 _16_ RTR  --- 20 DYMOUM 60 [0 ffffffff 14 800] ------- [20:255 -1:255 1 0] [ RE 0 0 40 9 0 1 18 0 0 [0 0 1 0 2] [0 0 0 20 2] ]
r 0.003535969 _10_ RTR  --- 20 DYMOUM 60 [0 ffffffff 14 800] ------- [20:255 -1:255 1 0] [ RE 0 0 40 9 0 1 18 0 0 [0 0 1 0 2] [0 0 0 20 2] ]
r 0.003536008 _1_ RTR  --- 20 DYMOUM 60 [0 ffffffff 14 800] ------- [20:255 -1:255 1 0] [ RE 0 0 40 9 0 1 18 0 0 [0 0 1 0 2] [0 0 0 20 2] ]
r 0.003536056 _3_ RTR  --- 20 DYMOUM 60 [0 ffffffff 14 800] ------- [20:255 -1:255 1 0] [ RE 0 0 40 9 0 1 18 0 0 [0 0 1 0 2] [0 0 0 20 2] ]
r 0.003536092 _2_ RTR  --- 20 DYMOUM 60 [0 ffffffff 14 800] ------- [20:255 -1:255 1 0] [ RE 0 0 40 9 0 1 18 0 0 [0 0 1 0 2] [0 0 0 20 2] ]
r 0.004548838 _19_ RTR  --- 11 DYMOUM 60 [0 ffffffff 16 800] ------- [22:255 -1:255 1 0] [ RE 0 0 40 9 0 1 18 0 0 [0 0 1 0 2] [0 0 0 22 2] ]
r 0.004549108 _21_ RTR  --- 11 DYMOUM 60 [0 ffffffff 16 800] ------- [22:255 -1:255 1 0] [ RE 0 0 40 9 0 1 18 0 0 [0 0 1 0 2] [0 0 0 22 2] ]
r 0.004549149 _18_ RTR  --- 11 DYMOUM 60 [0 ffffffff 16 800] ------- [22:255 -1:255 1 0] [ RE 0 0 40 9 0 1 18 0 0 [0 0 1 0 2] [0 0 0 22 2] ]
r 0.004549243 _12_ RTR  --- 11 DYMOUM 60 [0 ffffffff 16 800] ------- [22:255 -1:255 1 0] [ RE 0 0 40 9 0 1 18 0 0 [0 0 1 0 2] [0 0 0 22 2] ]
r 0.004549258 _0_ RTR  --- 11 DYMOUM 60 [0 ffffffff 16 800] ------- [22:255 -1:255 1 0] [ RE 0 0 40 9 0 1 18 0 0 [0 0 1 0 2] [0 0 0 22 2] ]
r 0.004549359 _20_ RTR  --- 11 DYMOUM 60 [0 ffffffff 16 800] ------- [22:255 -1:255 1 0] [ RE 0 0 40 9 0 1 18 0 0 [0 0 1 0 2] [0 0 0 22 2] ]
r 0.004549431 _17_ RTR  --- 11 DYMOUM 60 [0 ffffffff 16 800] ------- [22:255 -1:255 1 0] [ RE 0 0 40 9 0 1 18 0 0 [0 0 1 0 2] [0 0 0 22 2] ]
r 0.004549508 _13_ RTR  --- 11 DYMOUM 60 [0 ffffffff 16 800] ------- [22:255 -1:255 1 0] [ RE 0 0 40 9 0 1 18 0 0 [0 0 1 0 2] [0 0 0 22 2] ]
r 0.004549634 _15_ RTR  --- 11 DYMOUM 60 [0 ffffffff 16 800] ------- [22:255 -1:255 1 0] [ RE 0 0 40 9 0 1 18 0 0 [0 0 1 0 2] [0 0 0 22 2] ]
r 0.004549766 _8_ RTR  --- 11 DYMOUM 60 [0 ffffffff 16 800] ------- [22:255 -1:255 1 0] [ RE 0 0 40 9 0 1 18 0 0 [0 0 1 0 2] [0 0 0 22 2] ]
r 0.004549810 _14_ RTR  --- 11 DYMOUM 60 [0 ffffffff 16 800] ------- [22:255 -1:255 1 0] [ RE 0 0 40 9 0 1 18 0 0 [0 0 1 0 2] [0 0 0 22 2] ]
r 0.004549818 _11_ RTR  --- 11 DYMOUM 60 [0 ffffffff 16 800] ------- [22:255 -1:255 1 0] [ RE 0 0 40 9 0 1 18 0 0 [0 0 1 0 2] [0 0 0 22 2] ]
r 0.004549878 _16_ RTR  --- 11 DYMOUM 60 [0 ffffffff 16 800] ------- [22:255 -1:255 1 0] [ RE 0 0 40 9 0 1 18 0 0 [0 0 1 0 2] [0 0 0 22 2] ]
r 0.004549948 _7_ RTR  --- 11 DYMOUM 60 [0 ffffffff 16 800] ------- [22:255 -1:255 1 0] [ RE 0 0 40 9 0 1 18 0 0 [0 0 1 0 2] [0 0 0 22 2] ]
r 0.004549973 _9_ RTR  --- 11 DYMOUM 60 [0 ffffffff 16 800] ------- [22:255 -1:255 1 0] [ RE 0 0 40 9 0 1 18 0 0 [0 0 1 0 2] [0 0 0 22 2] ]
r 0.004550232 _6_ RTR  --- 11 DYMOUM 60 [0 ffffffff 16 800] ------- [22:255 -1:255 1 0] [ RE 0 0 40 9 0 1 18 0 0 [0 0 1 0 2] [0 0 0 22 2] ]
r 0.004550284 _10_ RTR  --- 11 DYMOUM 60 [0 ffffffff 16 800] ------- [22:255 -1:255 1 0] [ RE 0 0 40 9 0 1 18 0 0 [0 0 1 0 2] [0 0 0 22 2] ]
r 0.004550296 _4_ RTR  --- 11 DYMOUM 60 [0 ffffffff 16 800] ------- [22:255 -1:255 1 0] [ RE 0 0 40 9 0 1 18 0 0 [0 0 1 0 2] [0 0 0 22 2] ]
r 0.004550444 _5_ RTR  --- 11 DYMOUM 60 [0 ffffffff 16 800] ------- [22:255 -1:255 1 0] [ RE 0 0 40 9 0 1 18 0 0 [0 0 1 0 2] [0 0 0 22 2] ]
r 0.004550585 _3_ RTR  --- 11 DYMOUM 60 [0 ffffffff 16 800] ------- [22:255 -1:255 1 0] [ RE 0 0 40 9 0 1 18 0 0 [0 0 1 0 2] [0 0 0 22 2] ]
r 0.004550676 _1_ RTR  --- 11 DYMOUM 60 [0 ffffffff 16 800] ------- [22:255 -1:255 1 0] [ RE 0 0 40 9 0 1 18 0 0 [0 0 1 0 2] [0 0 0 22 2] ]
r 0.004550827 _2_ RTR  --- 11 DYMOUM 60 [0 ffffffff 16 800] ------- [22:255 -1:255 1 0] [ RE 0 0 40 9 0 1 18 0 0 [0 0 1 0 2] [0 0 0 22 2] ]
r 0.005564728 _9_ RTR  --- 14 DYMOUM 60 [0 ffffffff a 800] ------- [10:255 -1:255 1 0] [ RE 0 0 40 9 0 1 18 0 0 [0 0 1 0 2] [0 0 0 10 2] ]
r 0.005564903 _16_ RTR  --- 14 DYMOUM 60 [0 ffffffff a 800] ------- [10:255 -1:255 1 0] [ RE 0 0 40 9 0 1 18 0 0 [0 0 1 0 2] [0 0 0 10 2] ]
r 0.005564935 _15_ RTR  --- 14 DYMOUM 60 [0 ffffffff a 800] ------- [10:255 -1:255 1 0] [ RE 0 0 40 9 0 1 18 0 0 [0 0 1 0 2] [0 0 0 10 2] ]
r 0.005564936 _3_ RTR  --- 14 DYMOUM 60 [0 ffffffff a 800] ------- [10:255 -1:255 1 0] [ RE 0 0 40 9 0 1 18 0 0 [0 0 1 0 2] [0 0 0 10 2] ]
r 0.005565068 _14_ RTR  --- 14 DYMOUM 60 [0 ffffffff a 800] ------- [10:255 -1:255 1 0] [ RE 0 0 40 9 0 1 18 0 0 [0 0 1 0 2] [0 0 0 10 2] ]
r 0.005565109 _4_ RTR  --- 14 DYMOUM 60 [0 ffffffff a 800] ------- [10:255 -1:255 1 0] [ RE 0 0 40 9 0 1 18 0 0 [0 0 1 0 2] [0 0 0 10 2] ]
r 0.005565314 _17_ RTR  --- 14 DYMOUM 60 [0 ffffffff a 800] ------- [10:255 -1:255 1 0] [ RE 0 0 40 9 0 1 18 0 0 [0 0 1 0 2] [0 0 0 10 2] ]
r 0.005565396 _0_ RTR  --- 14 DYMOUM 60 [0 ffffffff a 800] ------- [10:255 -1:255 1 0] [ RE 0 0 40 9 0 1 18 0 0 [0 0 1 0 2] [0 0 0 10 2] ]
r 0.005565477 _7_ RTR  --- 14 DYMOUM 60 [0 ffffffff a 800] ------- [10:255 -1:255 1 0] [ RE 0 0 40 9 0 1 18 0 0 [0 0 1 0 2] [0 0 0 10 2] ]
r 0.005565481 _18_ RTR  --- 14 DYMOUM 60 [0 ffffffff a 800] ------- [10:255 -1:255 1 0] [ RE 0 0 40 9 0 1 18 0 0 [0 0 1 0 2] [0 0 0 10 2] ]
r 0.005565501 _2_ RTR  --- 14 DYMOUM 60 [0 ffffffff a 800] ------- [10:255 -1:255 1 0] [ RE 0 0 40 9 0 1 18 0 0 [0 0 1 0 2] [0 0 0 10 2] ]
r 0.005565636 _5_ RTR  --- 14 DYMOUM 60 [0 ffffffff a 800] ------- [10:255 -1:255 1 0] [ RE 0 0 40 9 0 1 18 0 0 [0 0 1 0 2] [0 0 0 10 2] ]
r 0.005565770 _8_ RTR  --- 14 DYMOUM 60 [0 ffffffff a 800] ------- [10:255 -1:255 1 0] [ RE 0 0 40 9 0 1 18 0 0 [0 0 1 0 2] [0 0 0 10 2] ]
r 0.005565845 _12_ RTR  --- 14 DYMOUM 60 [0 ffffffff a 800] ------- [10:255 -1:255 1 0] [ RE 0 0 40 9 0 1 18 0 0 [0 0 1 0 2] [0 0 0 10 2] ]
r 0.005565922 _6_ RTR  --- 14 DYMOUM 60 [0 ffffffff a 800] ------- [10:255 -1:255 1 0] [ RE 0 0 40 9 0 1 18 0 0 [0 0 1 0 2] [0 0 0 10 2] ]
r 0.005566157 _19_ RTR  --- 14 DYMOUM 60 [0 ffffffff a 800] ------- [10:255 -1:255 1 0] [ RE 0 0 40 9 0 1 18 0 0 [0 0 1 0 2] [0 0 0 10 2] ]
r 0.005566174 _22_ RTR  --- 14 DYMOUM 60 [0 ffffffff a 800] ------- [10:255 -1:255 1 0] [ RE 0 0 40 9 0 1 18 0 0 [0 0 1 0 2] [0 0 0 10 2] ]
r 0.005566260 _11_ RTR  --- 14 DYMOUM 60 [0 ffffffff a 800] ------- [10:255 -1:255 1 0] [ RE 0 0 40 9 0 1 18 0 0 [0 0 1 0 2] [0 0 0 10 2] ]
r 0.005566501 _13_ RTR  --- 14 DYMOUM 60 [0 ffffffff a 800] ------- [10:255 -1:255 1 0] [ RE 0 0 40 9 0 1 18 0 0 [0 0 1 0 2] [0 0 0 10 2] ]
r 0.005566826 _20_ RTR  --- 14 DYMOUM 60 [0 ffffffff a 800] ------- [10:255 -1:255 1 0] [ RE 0 0 40 9 0 1 18 0 0 [0 0 1 0 2] [0 0 0 10 2] ]
r 0.005566860 _21_ RTR  --- 14 DYMOUM 60 [0 ffffffff a 800] ------- [10:255 -1:255 1 0] [ RE 0 0 40 9 0 1 18 0 0 [0 0 1 0 2] [0 0 0 10 2] ]
r 0.005568219 _1_ RTR  --- 14 DYMOUM 60 [0 ffffffff a 800] ------- [10:255 -1:255 1 0] [ RE 0 0 40 9 0 1 18 0 0 [0 0 1 0 2] [0 0 0 10 2] ]
r 0.007338832 _10_ RTR  --- 12 DYMOUM 60 [0 ffffffff 10 800] ------- [16:255 -1:255 1 0] [ RE 0 0 40 9 0 1 18 0 0 [0 0 1 0 2] [0 0 0 16 2] ]
r 0.008738563 _5_ RTR  --- 17 DYMOUM 60 [0 ffffffff 6 800] ------- [6:255 -1:255 1 0] [ RE 0 0 40 9 0 1 18 0 0 [0 0 1 0 2] [0 0 0 6 2] ]
r 0.008738565 _8_ RTR  --- 17 DYMOUM 60 [0 ffffffff 6 800] ------- [6:255 -1:255 1 0] [ RE 0 0 40 9 0 1 18 0 0 [0 0 1 0 2] [0 0 0 6 2] ]
r 0.008738577 _7_ RTR  --- 17 DYMOUM 60 [0 ffffffff 6 800] ------- [6:255 -1:255 1 0] [ RE 0 0 40 9 0 1 18 0 0 [0 0 1 0 2] [0 0 0 6 2] ]
r 0.008738786 _11_ RTR  --- 17 DYMOUM 60 [0 ffffffff 6 800] ------- [6:255 -1:255 1 0] [ RE 0 0 40 9 0 1 18 0 0 [0 0 1 0 2] [0 0 0 6 2] ]
r 0.008738974 _4_ RTR  --- 17 DYMOUM 60 [0 ffffffff 6 800] ------- [6:255 -1:255 1 0] [ RE 0 0 40 9 0 1 18 0 0 [0 0 1 0 2] [0 0 0 6 2] ]
r 0.008739036 _14_ RTR  --- 17 DYMOUM 60 [0 ffffffff 6 800] ------- [6:255 -1:255 1 0] [ RE 0 0 40 9 0 1 18 0 0 [0 0 1 0 2] [0 0 0 6 2] ]
r 0.008739089 _12_ RTR  --- 17 DYMOUM 60 [0 ffffffff 6 800] ------- [6:255 -1:255 1 0] [ RE 0 0 40 9 0 1 18 0 0 [0 0 1 0 2] [0 0 0 6 2] ]
r 0.008739122 _2_ RTR  --- 17 DYMOUM 60 [0 ffffffff 6 800] ------- [6:255 -1:255 1 0] [ RE 0 0 40 9 0 1 18 0 0 [0 0 1 0 2] [0 0 0 6 2] ]
r 0.008739301 _13_ RTR  --- 17 DYMOUM 60 [0 ffffffff 6 800] ------- [6:255 -1:255 1 0] [ RE 0 0 40 9 0 1 18 0 0 [0 0 1 0 2] [0 0 0 6 2] ]
r 0.008739305 _0_ RTR  --- 17 DYMOUM 60 [0 ffffffff 6 800] ------- [6:255 -1:255 1 0] [ RE 0 0 40 9 0 1 18 0 0 [0 0 1 0 2] [0 0 0 6 2] ]
r 0.008739335 _9_ RTR  --- 17 DYMOUM 60 [0 ffffffff 6 800] ------- [6:255 -1:255 1 0] [ RE 0 0 40 9 0 1 18 0 0 [0 0 1 0 2] [0 0 0 6 2] ]
r 0.008739381 _3_ RTR  --- 17 DYMOUM 60 [0 ffffffff 6 800] ------- [6:255 -1:255 1 0] [ RE 0 0 40 9 0 1 18 0 0 [0 0 1 0 2] [0 0 0 6 2] ]
r 0.008739564 _19_ RTR  --- 17 DYMOUM 60 [0 ffffffff 6 800] ------- [6:255 -1:255 1 0] [ RE 0 0 40 9 0 1 18 0 0 [0 0 1 0 2] [0 0 0 6 2] ]
r 0.008739581 _15_ RTR  --- 17 DYMOUM 60 [0 ffffffff 6 800] ------- [6:255 -1:255 1 0] [ RE 0 0 40 9 0 1 18 0 0 [0 0 1 0 2] [0 0 0 6 2] ]
r 0.008739737 _10_ RTR  --- 17 DYMOUM 60 [0 ffffffff 6 800] ------- [6:255 -1:255 1 0] [ RE 0 0 40 9 0 1 18 0 0 [0 0 1 0 2] [0 0 0 6 2] ]
r 0.008739837 _18_ RTR  --- 17 DYMOUM 60 [0 ffffffff 6 800] ------- [6:255 -1:255 1 0] [ RE 0 0 40 9 0 1 18 0 0 [0 0 1 0 2] [0 0 0 6 2] ]
r 0.008739863 _20_ RTR  --- 17 DYMOUM 60 [0 ffffffff 6 800] ------- [6:255 -1:255 1 0] [ RE 0 0 40 9 0 1 18 0 0 [0 0 1 0 2] [0 0 0 6 2] ]
r 0.008739938 _22_ RTR  --- 17 DYMOUM 60 [0 ffffffff 6 800] ------- [6:255 -1:255 1 0] [ RE 0 0 40 9 0 1 18 0 0 [0 0 1 0 2] [0 0 0 6 2] ]
r 0.008739977 _17_ RTR  --- 17 DYMOUM 60 [0 ffffffff 6 800] ------- [6:255 -1:255 1 0] [ RE 0 0 40 9 0 1 18 0 0 [0 0 1 0 2] [0 0 0 6 2] ]
r 0.008739984 _16_ RTR  --- 17 DYMOUM 60 [0 ffffffff 6 800] ------- [6:255 -1:255 1 0] [ RE 0 0 40 9 0 1 18 0 0 [0 0 1 0 2] [0 0 0 6 2] ]
r 0.008740273 _21_ RTR  --- 17 DYMOUM 60 [0 ffffffff 6 800] ------- [6:255 -1:255 1 0] [ RE 0 0 40 9 0 1 18 0 0 [0 0 1 0 2] [0 0 0 6 2] ]
r 0.008742194 _1_ RTR  --- 17 DYMOUM 60 [0 ffffffff 6 800] ------- [6:255 -1:255 1 0] [ RE 0 0 40 9 0 1 18 0 0 [0 0 1 0 2] [0 0 0 6 2] ]
r 0.009793808 _4_ RTR  --- 19 DYMOUM 60 [0 ffffffff 3 800] ------- [3:255 -1:255 1 0] [ RE 0 0 40 9 0 1 18 0 0 [0 0 1 0 2] [0 0 0 3 2] ]
r 0.009793961 _2_ RTR  --- 19 DYMOUM 60 [0 ffffffff 3 800] ------- [3:255 -1:255 1 0] [ RE 0 0 40 9 0 1 18 0 0 [0 0 1 0 2] [0 0 0 3 2] ]
r 0.009794021 _9_ RTR  --- 19 DYMOUM 60 [0 ffffffff 3 800] ------- [3:255 -1:255 1 0] [ RE 0 0 40 9 0 1 18 0 0 [0 0 1 0 2] [0 0 0 3 2] ]
r 0.009794033 _10_ RTR  --- 19 DYMOUM 60 [0 ffffffff 3 800] ------- [3:255 -1:255 1 0] [ RE 0 0 40 9 0 1 18 0 0 [0 0 1 0 2] [0 0 0 3 2] ]
r 0.009794176 _14_ RTR  --- 19 DYMOUM 60 [0 ffffffff 3 800] ------- [3:255 -1:255 1 0] [ RE 0 0 40 9 0 1 18 0 0 [0 0 1 0 2] [0 0 0 3 2] ]
r 0.009794258 _5_ RTR  --- 19 DYMOUM 60 [0 ffffffff 3 800] ------- [3:255 -1:255 1 0] [ RE 0 0 40 9 0 1 18 0 0 [0 0 1 0 2] [0 0 0 3 2] ]
r 0.009794348 _7_ RTR  --- 19 DYMOUM 60 [0 ffffffff 3 800] ------- [3:255 -1:255 1 0] [ RE 0 0 40 9 0 1 18 0 0 [0 0 1 0 2] [0 0 0 3 2] ]
r 0.009794458 _15_ RTR  --- 19 DYMOUM 60 [0 ffffffff 3 800] ------- [3:255 -1:255 1 0] [ RE 0 0 40 9 0 1 18 0 0 [0 0 1 0 2] [0 0 0 3 2] ]
r 0.009794611 _16_ RTR  --- 19 DYMOUM 60 [0 ffffffff 3 800] ------- [3:255 -1:255 1 0] [ RE 0 0 40 9 0 1 18 0 0 [0 0 1 0 2] [0 0 0 3 2] ]
r 0.009794665 _6_ RTR  --- 19 DYMOUM 60 [0 ffffffff 3 800] ------- [3:255 -1:255 1 0] [ RE 0 0 40 9 0 1 18 0 0 [0 0 1 0 2] [0 0 0 3 2] ]
r 0.009794706 _8_ RTR  --- 19 DYMOUM 60 [0 ffffffff 3 800] ------- [3:255 -1:255 1 0] [ RE 0 0 40 9 0 1 18 0 0 [0 0 1 0 2] [0 0 0 3 2] ]
r 0.009794711 _0_ RTR  --- 19 DYMOUM 60 [0 ffffffff 3 800] ------- [3:255 -1:255 1 0] [ RE 0 0 40 9 0 1 18 0 0 [0 0 1 0 2] [0 0 0 3 2] ]
r 0.009794932 _17_ RTR  --- 19 DYMOUM 60 [0 ffffffff 3 800] ------- [3:255 -1:255 1 0] [ RE 0 0 40 9 0 1 18 0 0 [0 0 1 0 2] [0 0 0 3 2] ]
r 0.009794995 _12_ RTR  --- 19 DYMOUM 60 [0 ffffffff 3 800] ------- [3:255 -1:255 1 0] [ RE 0 0 40 9 0 1 18 0 0 [0 0 1 0 2] [0 0 0 3 2] ]
r 0.009795010 _18_ RTR  --- 19 DYMOUM 60 [0 ffffffff 3 800] ------- [3:255 -1:255 1 0] [ RE 0 0 40 9 0 1 18 0 0 [0 0 1 0 2] [0 0 0 3 2] ]
r 0.009795192 _11_ RTR  --- 19 DYMOUM 60 [0 ffffffff 3 800] ------- [3:255 -1:255 1 0] [ RE 0 0 40 9 0 1 18 0 0 [0 0 1 0 2] [0 0 0 3 2] ]
r 0.009795423 _19_ RTR  --- 19 DYMOUM 60 [0 ffffffff 3 800] ------- [3:255 -1:255 1 0] [ RE 0 0 40 9 0 1 18 0 0 [0 0 1 0 2] [0 0 0 3 2] ]
r 0.009795568 _13_ RTR  --- 19 DYMOUM 60 [0 ffffffff 3 800] ------- [3:255 -1:255 1 0] [ RE 0 0 40 9 0 1 18 0 0 [0 0 1 0 2] [0 0 0 3 2] ]
r 0.009795574 _22_ RTR  --- 19 DYMOUM 60 [0 ffffffff 3 800] ------- [3:255 -1:255 1 0] [ RE 0 0 40 9 0 1 18 0 0 [0 0 1 0 2] [0 0 0 3 2] ]
r 0.009796010 _20_ RTR  --- 19 DYMOUM 60 [0 ffffffff 3 800] ------- [3:255 -1:255 1 0] [ RE 0 0 40 9 0 1 18 0 0 [0 0 1 0 2] [0 0 0 3 2] ]
r 0.009796186 _21_ RTR  --- 19 DYMOUM 60 [0 ffffffff 3 800] ------- [3:255 -1:255 1 0] [ RE 0 0 40 9 0 1 18 0 0 [0 0 1 0 2] [0 0 0 3 2] ]
r 0.009797768 _1_ RTR  --- 19 DYMOUM 60 [0 ffffffff 3 800] ------- [3:255 -1:255 1 0] [ RE 0 0 40 9 0 1 18 0 0 [0 0 1 0 2] [0 0 0 3 2] ]
r 0.010828708 _8_ RTR  --- 10 DYMOUM 60 [0 ffffffff 7 800] ------- [7:255 -1:255 1 0] [ RE 0 0 40 9 0 1 18 0 0 [0 0 1 0 2] [0 0 0 7 2] ]
r 0.010828808 _14_ RTR  --- 10 DYMOUM 60 [0 ffffffff 7 800] ------- [7:255 -1:255 1 0] [ RE 0 0 40 9 0 1 18 0 0 [0 0 1 0 2] [0 0 0 7 2] ]
r 0.010828827 _6_ RTR  --- 10 DYMOUM 60 [0 ffffffff 7 800] ------- [7:255 -1:255 1 0] [ RE 0 0 40 9 0 1 18 0 0 [0 0 1 0 2] [0 0 0 7 2] ]
r 0.010828844 _5_ RTR  --- 10 DYMOUM 60 [0 ffffffff 7 800] ------- [7:255 -1:255 1 0] [ RE 0 0 40 9 0 1 18 0 0 [0 0 1 0 2] [0 0 0 7 2] ]
r 0.010828891 _4_ RTR  --- 10 DYMOUM 60 [0 ffffffff 7 800] ------- [7:255 -1:255 1 0] [ RE 0 0 40 9 0 1 18 0 0 [0 0 1 0 2] [0 0 0 7 2] ]
r 0.010829119 _9_ RTR  --- 10 DYMOUM 60 [0 ffffffff 7 800] ------- [7:255 -1:255 1 0] [ RE 0 0 40 9 0 1 18 0 0 [0 0 1 0 2] [0 0 0 7 2] ]
r 0.010829119 _12_ RTR  --- 10 DYMOUM 60 [0 ffffffff 7 800] ------- [7:255 -1:255 1 0] [ RE 0 0 40 9 0 1 18 0 0 [0 0 1 0 2] [0 0 0 7 2] ]
r 0.010829145 _0_ RTR  --- 10 DYMOUM 60 [0 ffffffff 7 800] ------- [7:255 -1:255 1 0] [ RE 0 0 40 9 0 1 18 0 0 [0 0 1 0 2] [0 0 0 7 2] ]
r 0.010829194 _11_ RTR  --- 10 DYMOUM 60 [0 ffffffff 7 800] ------- [7:255 -1:255 1 0] [ RE 0 0 40 9 0 1 18 0 0 [0 0 1 0 2] [0 0 0 7 2] ]
r 0.010829286 _2_ RTR  --- 10 DYMOUM 60 [0 ffffffff 7 800] ------- [7:255 -1:255 1 0] [ RE 0 0 40 9 0 1 18 0 0 [0 0 1 0 2] [0 0 0 7 2] ]
r 0.010829315 _3_ RTR  --- 10 DYMOUM 60 [0 ffffffff 7 800] ------- [7:255 -1:255 1 0] [ RE 0 0 40 9 0 1 18 0 0 [0 0 1 0 2] [0 0 0 7 2] ]
r 0.010829355 _15_ RTR  --- 10 DYMOUM 60 [0 ffffffff 7 800] ------- [7:255 -1:255 1 0] [ RE 0 0 40 9 0 1 18 0 0 [0 0 1 0 2] [0 0 0 7 2] ]
r 0.010829542 _10_ RTR  --- 10 DYMOUM 60 [0 ffffffff 7 800] ------- [7:255 -1:255 1 0] [ RE 0 0 40 9 0 1 18 0 0 [0 0 1 0 2] [0 0 0 7 2] ]
r 0.010829589 _13_ RTR  --- 10 DYMOUM 60 [0 ffffffff 7 800] ------- [7:255 -1:255 1 0] [ RE 0 0 40 9 0 1 18 0 0 [0 0 1 0 2] [0 0 0 7 2] ]
r 0.010829608 _19_ RTR  --- 10 DYMOUM 60 [0 ffffffff 7 800] ------- [7:255 -1:255 1 0] [ RE 0 0 40 9 0 1 18 0 0 [0 0 1 0 2] [0 0 0 7 2] ]
r 0.010829661 _18_ RTR  --- 10 DYMOUM 60 [0 ffffffff 7 800] ------- [7:255 -1:255 1 0] [ RE 0 0 40 9 0 1 18 0 0 [0 0 1 0 2] [0 0 0 7 2] ]
r 0.010829756 _16_ RTR  --- 10 DYMOUM 60 [0 ffffffff 7 800] ------- [7:255 -1:255 1 0] [ RE 0 0 40 9 0 1 18 0 0 [0 0 1 0 2] [0 0 0 7 2] ]
r 0.010829770 _17_ RTR  --- 10 DYMOUM 60 [0 ffffffff 7 800] ------- [7:255 -1:255 1 0] [ RE 0 0 40 9 0 1 18 0 0 [0 0 1 0 2] [0 0 0 7 2] ]
r 0.010829903 _22_ RTR  --- 10 DYMOUM 60 [0 ffffffff 7 800] ------- [7:255 -1:255 1 0] [ RE 0 0 40 9 0 1 18 0 0 [0 0 1 0 2] [0 0 0 7 2] ]
r 0.010830081 _20_ RTR  --- 10 DYMOUM 60 [0 ffffffff 7 800] ------- [7:255 -1:255 1 0] [ RE 0 0 40 9 0 1 18 0 0 [0 0 1 0 2] [0 0 0 7 2] ]
r 0.010830372 _21_ RTR  --- 10 DYMOUM 60 [0 ffffffff 7 800] ------- [7:255 -1:255 1 0] [ RE 0 0 40 9 0 1 18 0 0 [0 0 1 0 2] [0 0 0 7 2] ]
r 0.010832186 _1_ RTR  --- 10 DYMOUM 60 [0 ffffffff 7 800] ------- [7:255 -1:255 1 0] [ RE 0 0 40 9 0 1 18 0 0 [0 0 1 0 2] [0 0 0 7 2] ]
r 0.011863612 _19_ RTR  --- 2 DYMOUM 60 [0 ffffffff c 800] ------- [12:255 -1:255 1 0] [ RE 0 0 40 9 0 1 18 0 0 [0 0 1 0 2] [0 0 0 12 2] ]
r 0.011863640 _0_ RTR  --- 2 DYMOUM 60 [0 ffffffff c 800] ------- [12:255 -1:255 1 0] [ RE 0 0 40 9 0 1 18 0 0 [0 0 1 0 2] [0 0 0 12 2] ]
r 0.011863647 _8_ RTR  --- 2 DYMOUM 60 [0 ffffffff c 800] ------- [12:255 -1:255 1 0] [ RE 0 0 40 9 0 1 18 0 0 [0 0 1 0 2] [0 0 0 12 2] ]
r 0.011863781 _11_ RTR  --- 2 DYMOUM 60 [0 ffffffff c 800] ------- [12:255 -1:255 1 0] [ RE 0 0 40 9 0 1 18 0 0 [0 0 1 0 2] [0 0 0 12 2] ]
r 0.011863787 _13_ RTR  --- 2 DYMOUM 60 [0 ffffffff c 800] ------- [12:255 -1:255 1 0] [ RE 0 0 40 9 0 1 18 0 0 [0 0 1 0 2] [0 0 0 12 2] ]
r 0.011863891 _7_ RTR  --- 2 DYMOUM 60 [0 ffffffff c 800] ------- [12:255 -1:255 1 0] [ RE 0 0 40 9 0 1 18 0 0 [0 0 1 0 2] [0 0 0 12 2] ]
r 0.011863957 _14_ RTR  --- 2 DYMOUM 60 [0 ffffffff c 800] ------- [12:255 -1:255 1 0] [ RE 0 0 40 9 0 1 18 0 0 [0 0 1 0 2] [0 0 0 12 2] ]
r 0.011863969 _22_ RTR  --- 2 DYMOUM 60 [0 ffffffff c 800] ------- [12:255 -1:255 1 0] [ RE 0 0 40 9 0 1 18 0 0 [0 0 1 0 2] [0 0 0 12 2] ]
r 0.011864077 _18_ RTR  --- 2 DYMOUM 60 [0 ffffffff c 800] ------- [12:255 -1:255 1 0] [ RE 0 0 40 9 0 1 18 0 0 [0 0 1 0 2] [0 0 0 12 2] ]
r 0.011864111 _6_ RTR  --- 2 DYMOUM 60 [0 ffffffff c 800] ------- [12:255 -1:255 1 0] [ RE 0 0 40 9 0 1 18 0 0 [0 0 1 0 2] [0 0 0 12 2] ]
r 0.011864136 _20_ RTR  --- 2 DYMOUM 60 [0 ffffffff c 800] ------- [12:255 -1:255 1 0] [ RE 0 0 40 9 0 1 18 0 0 [0 0 1 0 2] [0 0 0 12 2] ]
r 0.011864158 _15_ RTR  --- 2 DYMOUM 60 [0 ffffffff c 800] ------- [12:255 -1:255 1 0] [ RE 0 0 40 9 0 1 18 0 0 [0 0 1 0 2] [0 0 0 12 2] ]
r 0.011864255 _9_ RTR  --- 2 DYMOUM 60 [0 ffffffff c 800] ------- [12:255 -1:255 1 0] [ RE 0 0 40 9 0 1 18 0 0 [0 0 1 0 2] [0 0 0 12 2] ]
r 0.011864322 _17_ RTR  --- 2 DYMOUM 60 [0 ffffffff c 800] ------- [12:255 -1:255 1 0] [ RE 0 0 40 9 0 1 18 0 0 [0 0 1 0 2] [0 0 0 12 2] ]
r 0.011864356 _4_ RTR  --- 2 DYMOUM 60 [0 ffffffff c 800] ------- [12:255 -1:255 1 0] [ RE 0 0 40 9 0 1 18 0 0 [0 0 1 0 2] [0 0 0 12 2] ]
r 0.011864367 _5_ RTR  --- 2 DYMOUM 60 [0 ffffffff c 800] ------- [12:255 -1:255 1 0] [ RE 0 0 40 9 0 1 18 0 0 [0 0 1 0 2] [0 0 0 12 2] ]
r 0.011864372 _21_ RTR  --- 2 DYMOUM 60 [0 ffffffff c 800] ------- [12:255 -1:255 1 0] [ RE 0 0 40 9 0 1 18 0 0 [0 0 1 0 2] [0 0 0 12 2] ]
r 0.011864566 _16_ RTR  --- 2 DYMOUM 60 [0 ffffffff c 800] ------- [12:255 -1:255 1 0] [ RE 0 0 40 9 0 1 18 0 0 [0 0 1 0 2] [0 0 0 12 2] ]
r 0.011864680 _10_ RTR  --- 2 DYMOUM 60 [0 ffffffff c 800] ------- [12:255 -1:255 1 0] [ RE 0 0 40 9 0 1 18 0 0 [0 0 1 0 2] [0 0 0 12 2] ]
r 0.011864733 _3_ RTR  --- 2 DYMOUM 60 [0 ffffffff c 800] ------- [12:255 -1:255 1 0] [ RE 0 0 40 9 0 1 18 0 0 [0 0 1 0 2] [0 0 0 12 2] ]
r 0.011864824 _2_ RTR  --- 2 DYMOUM 60 [0 ffffffff c 800] ------- [12:255 -1:255 1 0] [ RE 0 0 40 9 0 1 18 0 0 [0 0 1 0 2] [0 0 0 12 2] ]
r 0.011866229 _1_ RTR  --- 2 DYMOUM 60 [0 ffffffff c 800] ------- [12:255 -1:255 1 0] [ RE 0 0 40 9 0 1 18 0 0 [0 0 1 0 2] [0 0 0 12 2] ]
r 0.012898782 _3_ RTR  --- 13 DYMOUM 60 [0 ffffffff 4 800] ------- [4:255 -1:255 1 0] [ RE 0 0 40 9 0 1 18 0 0 [0 0 1 0 2] [0 0 0 4 2] ]
r 0.012898850 _14_ RTR  --- 13 DYMOUM 60 [0 ffffffff 4 800] ------- [4:255 -1:255 1 0] [ RE 0 0 40 9 0 1 18 0 0 [0 0 1 0 2] [0 0 0 4 2] ]
r 0.012898884 _5_ RTR  --- 13 DYMOUM 60 [0 ffffffff 4 800] ------- [4:255 -1:255 1 0] [ RE 0 0 40 9 0 1 18 0 0 [0 0 1 0 2] [0 0 0 4 2] ]
r 0.012898899 _7_ RTR  --- 13 DYMOUM 60 [0 ffffffff 4 800] ------- [4:255 -1:255 1 0] [ RE 0 0 40 9 0 1 18 0 0 [0 0 1 0 2] [0 0 0 4 2] ]
r 0.012898901 _9_ RTR  --- 13 DYMOUM 60 [0 ffffffff 4 800] ------- [4:255 -1:255 1 0] [ RE 0 0 40 9 0 1 18 0 0 [0 0 1 0 2] [0 0 0 4 2] ]
r 0.012898911 _2_ RTR  --- 13 DYMOUM 60 [0 ffffffff 4 800] ------- [4:255 -1:255 1 0] [ RE 0 0 40 9 0 1 18 0 0 [0 0 1 0 2] [0 0 0 4 2] ]
r 0.012899181 _10_ RTR  --- 13 DYMOUM 60 [0 ffffffff 4 800] ------- [4:255 -1:255 1 0] [ RE 0 0 40 9 0 1 18 0 0 [0 0 1 0 2] [0 0 0 4 2] ]