n -t * -s 0  -x 663 -y 484 -Z 0 -z 30  -v circle -c black
n -t * -s 1  -x 466 -y 407 -Z 0 -z 30  -v circle -c black
n -t * -s 2  -x 791 -y 406 -Z 0 -z 30  -v circle -c black
n -t * -s 3  -x 668 -y 393 -Z 0 -z 30  -v circle -c black
n -t * -s 4  -x 558 -y 320 -Z 0 -z 30  -v circle -c black
n -t * -s 5  -x 781 -y 317 -Z 0 -z 30  -v circle -c black
n -t * -s 6  -x 650 -y 40 -Z 0 -z 30  -v circle -c black
n -t * -s 7  -x 671 -y 194 -Z 0 -z 30  -v circle -c black
n -t * -s 8  -x 761 -y 234 -Z 0 -z 30  -v circle -c black
n -t * -s 9  -x 476 -y 117 -Z 0 -z 30  -v circle -c black
n -t * -s 10  -x 714 -y 121 -Z 0 -z 30  -v circle -c black
n -t * -s 11  -x 825 -y 140 -Z 0 -z 30  -v circle -c black
n -t * -s 12  -x 509 -y 34 -Z 0 -z 30  -v circle -c black
n -t * -s 13  -x 687 -y 36 -Z 0 -z 30  -v circle -c black
n -t * -s 14  -x 822 -y 51 -Z 0 -z 30  -v circle -c black
n -t * -s 15  -x 373 -y 271 -Z 0 -z 30  -v circle -c black
n -t * -s 16  -x 903 -y 255 -Z 0 -z 30  -v circle -c black
n -t * -s 17  -x 908 -y 344 -Z 0 -z 30  -v circle -c black
n -t * -s 18  -x 600 -y 180 -Z 0 -z 30  -v circle -c black
n -t * -s 19  -x 455 -y 479 -Z 0 -z 30  -v circle -c black
n -t * -s 20  -x 350 -y 434 -Z 0 -z 30  -v circle -c black
n -t * -s 21  -x 263 -y 306 -Z 0 -z 30  -v circle -c black
n -t * -s 22  -x 261 -y 209 -Z 0 -z 30  -v circle -c black
n -t * -s 23  -x 240 -y 115 -Z 0 -z 30  -v circle -c black
n -t * -s 24  -x 313 -y 29 -Z 0 -z 30  -v circle -c black
V -t * -v 1.0a5 -a 0
W -t * -x 1186 -y 584
A -t * -n 1 -p 0 -o 0xffffffff -c 31 -a 1
A -t * -h 1 -m 2147483647 -s 0
n -t 0 -s 7 -S COLOR -c red -o red -i red -I red
n -t 0 -s 13 -S COLOR -c red -o red -i red -I red
n -t 0 -s 20 -S COLOR -c green -o green -i green -I green
n -t 0 -s 21 -S COLOR -c green -o green -i green -I green
n -t 0 -s 17 -S COLOR -c blue -o blue -i blue -I blue
n -t 0 -s 9 -S COLOR -c blue -o blue -i blue -I blue
n -t 0.000000 -s 21 -x 263.000000 -y 306.000000 -U -23.465090 -V -32.394283 -T 4.815665
n -t 0.000000 -s 20 -x 350.000000 -y 434.000000 -U -23.031145 -V -32.704226 -T 8.683893
+ -t 1.000000000 -s 21 -d -1 -p cbr -e 512 -c 2 -a 0 -i 0 -k AGT 
- -t 1.000000000 -s 21 -d -1 -p cbr -e 512 -c 2 -a 0 -i 0 -k AGT
h -t 1.000000000 -s 21 -d -1 -p cbr -e 512 -c 2 -a 0 -i 0 -k AGT
+ -t 1.000000000 -s 21 -d -1 -p DYMOUM -e 48 -c 2 -a 0 -i 1 -k RTR 
- -t 1.000000000 -s 21 -d -1 -p DYMOUM -e 48 -c 2 -a 0 -i 1 -k RTR
h -t 1.000000000 -s 21 -d -1 -p DYMOUM -e 48 -c 2 -a 0 -i 1 -k RTR
r -t 1.001408227 -s 22 -d -1 -p DYMOUM -e 48 -c 2 -a 0 -i 1 -k RTR
+ -t 1.001408227 -s 22 -d -1 -p DYMOUM -e 60 -c 2 -a 0 -i 2 -k RTR 
- -t 1.001408227 -s 22 -d -1 -p DYMOUM -e 60 -c 2 -a 0 -i 2 -k RTR
h -t 1.001408227 -s 22 -d -1 -p DYMOUM -e 60 -c 2 -a 0 -i 2 -k RTR
r -t 1.001408445 -s 15 -d -1 -p DYMOUM -e 48 -c 2 -a 0 -i 1 -k RTR
+ -t 1.001408445 -s 15 -d -1 -p DYMOUM -e 60 -c 2 -a 0 -i 3 -k RTR 
- -t 1.001408445 -s 15 -d -1 -p DYMOUM -e 60 -c 2 -a 0 -i 3 -k RTR
h -t 1.001408445 -s 15 -d -1 -p DYMOUM -e 60 -c 2 -a 0 -i 3 -k RTR
r -t 1.001408516 -s 20 -d -1 -p DYMOUM -e 48 -c 2 -a 0 -i 1 -k RTR
+ -t 1.001408516 -s 20 -d -1 -p DYMOUM -e 60 -c 2 -a 0 -i 4 -k RTR 
- -t 1.001408516 -s 20 -d -1 -p DYMOUM -e 60 -c 2 -a 0 -i 4 -k RTR
h -t 1.001408516 -s 20 -d -1 -p DYMOUM -e 60 -c 2 -a 0 -i 4 -k RTR
r -t 1.001408529 -s 23 -d -1 -p DYMOUM -e 48 -c 2 -a 0 -i 1 -k RTR
+ -t 1.001408529 -s 23 -d -1 -p DYMOUM -e 60 -c 2 -a 0 -i 5 -k RTR 
- -t 1.001408529 -s 23 -d -1 -p DYMOUM -e 60 -c 2 -a 0 -i 5 -k RTR
h -t 1.001408529 -s 23 -d -1 -p DYMOUM -e 60 -c 2 -a 0 -i 5 -k RTR
r -t 1.002452850 -s 22 -d -1 -p DYMOUM -e 60 -c 2 -a 0 -i 5 -k RTR
r -t 1.002452905 -s 24 -d -1 -p DYMOUM -e 60 -c 2 -a 0 -i 5 -k RTR
+ -t 1.002452905 -s 24 -d -1 -p DYMOUM -e 72 -c 2 -a 0 -i 6 -k RTR 
- -t 1.002452905 -s 24 -d -1 -p DYMOUM -e 72 -c 2 -a 0 -i 6 -k RTR
h -t 1.002452905 -s 24 -d -1 -p DYMOUM -e 72 -c 2 -a 0 -i 6 -k RTR
r -t 1.002453057 -s 21 -d -1 -p DYMOUM -e 60 -c 2 -a 0 -i 5 -k RTR
r -t 1.002453212 -s 15 -d -1 -p DYMOUM -e 60 -c 2 -a 0 -i 5 -k RTR
r -t 1.002453315 -s 9 -d -1 -p DYMOUM -e 60 -c 2 -a 0 -i 5 -k RTR
+ -t 1.002453315 -s 9 -d -1 -p DYMOUM -e 72 -c 2 -a 0 -i 7 -k RTR 
- -t 1.002453315 -s 9 -d -1 -p DYMOUM -e 72 -c 2 -a 0 -i 7 -k RTR
h -t 1.002453315 -s 9 -d -1 -p DYMOUM -e 72 -c 2 -a 0 -i 7 -k RTR
r -t 1.003793281 -s 23 -d -1 -p DYMOUM -e 72 -c 2 -a 0 -i 6 -k RTR
r -t 1.003793522 -s 9 -d -1 -p DYMOUM -e 72 -c 2 -a 0 -i 6 -k RTR
r -t 1.003793529 -s 22 -d -1 -p DYMOUM -e 72 -c 2 -a 0 -i 6 -k RTR
r -t 1.003793558 -s 12 -d -1 -p DYMOUM -e 72 -c 2 -a 0 -i 6 -k RTR
+ -t 1.003793558 -s 12 -d -1 -p DYMOUM -e 84 -c 2 -a 0 -i 8 -k RTR 
- -t 1.003793558 -s 12 -d -1 -p DYMOUM -e 84 -c 2 -a 0 -i 8 -k RTR
h -t 1.003793558 -s 12 -d -1 -p DYMOUM -e 84 -c 2 -a 0 -i 8 -k RTR
r -t 1.003793736 -s 15 -d -1 -p DYMOUM -e 72 -c 2 -a 0 -i 6 -k RTR
r -t 1.004923820 -s 12 -d -1 -p DYMOUM -e 72 -c 2 -a 0 -i 7 -k RTR
r -t 1.004923986 -s 18 -d -1 -p DYMOUM -e 72 -c 2 -a 0 -i 7 -k RTR
+ -t 1.004923986 -s 18 -d -1 -p DYMOUM -e 84 -c 2 -a 0 -i 9 -k RTR 
- -t 1.004923986 -s 18 -d -1 -p DYMOUM -e 84 -c 2 -a 0 -i 9 -k RTR
h -t 1.004923986 -s 18 -d -1 -p DYMOUM -e 84 -c 2 -a 0 -i 9 -k RTR
r -t 1.004924140 -s 24 -d -1 -p DYMOUM -e 72 -c 2 -a 0 -i 7 -k RTR
r -t 1.004924140 -s 15 -d -1 -p DYMOUM -e 72 -c 2 -a 0 -i 7 -k RTR
r -t 1.004924156 -s 6 -d -1 -p DYMOUM -e 72 -c 2 -a 0 -i 7 -k RTR
+ -t 1.004924156 -s 6 -d -1 -p DYMOUM -e 84 -c 2 -a 0 -i 10 -k RTR 
- -t 1.004924156 -s 6 -d -1 -p DYMOUM -e 84 -c 2 -a 0 -i 10 -k RTR
h -t 1.004924156 -s 6 -d -1 -p DYMOUM -e 84 -c 2 -a 0 -i 10 -k RTR
r -t 1.004924221 -s 7 -d -1 -p DYMOUM -e 72 -c 2 -a 0 -i 7 -k RTR
+ -t 1.004924221 -s 7 -d -1 -p DYMOUM -e 84 -c 2 -a 0 -i 11 -k RTR 
- -t 1.004924221 -s 7 -d -1 -p DYMOUM -e 84 -c 2 -a 0 -i 11 -k RTR
h -t 1.004924221 -s 7 -d -1 -p DYMOUM -e 84 -c 2 -a 0 -i 11 -k RTR
r -t 1.004924252 -s 4 -d -1 -p DYMOUM -e 72 -c 2 -a 0 -i 7 -k RTR
+ -t 1.004924252 -s 4 -d -1 -p DYMOUM -e 84 -c 2 -a 0 -i 12 -k RTR 
- -t 1.004924252 -s 4 -d -1 -p DYMOUM -e 84 -c 2 -a 0 -i 12 -k RTR
h -t 1.004924252 -s 4 -d -1 -p DYMOUM -e 84 -c 2 -a 0 -i 12 -k RTR
r -t 1.004924275 -s 13 -d -1 -p DYMOUM -e 72 -c 2 -a 0 -i 7 -k RTR
+ -t 1.004924275 -s 13 -d -1 -p DYMOUM -e 84 -c 2 -a 0 -i 13 -k RTR 
- -t 1.004924275 -s 13 -d -1 -p DYMOUM -e 84 -c 2 -a 0 -i 13 -k RTR
h -t 1.004924275 -s 13 -d -1 -p DYMOUM -e 84 -c 2 -a 0 -i 13 -k RTR
r -t 1.004924302 -s 22 -d -1 -p DYMOUM -e 72 -c 2 -a 0 -i 7 -k RTR
r -t 1.004924309 -s 23 -d -1 -p DYMOUM -e 72 -c 2 -a 0 -i 7 -k RTR
r -t 1.004924316 -s 10 -d -1 -p DYMOUM -e 72 -c 2 -a 0 -i 7 -k RTR
+ -t 1.004924316 -s 10 -d -1 -p DYMOUM -e 84 -c 2 -a 0 -i 14 -k RTR 
- -t 1.004924316 -s 10 -d -1 -p DYMOUM -e 84 -c 2 -a 0 -i 14 -k RTR
h -t 1.004924316 -s 10 -d -1 -p DYMOUM -e 84 -c 2 -a 0 -i 14 -k RTR
r -t 1.005938566 -s 22 -d -1 -p DYMOUM -e 60 -c 2 -a 0 -i 3 -k RTR
r -t 1.005938585 -s 21 -d -1 -p DYMOUM -e 60 -c 2 -a 0 -i 3 -k RTR
r -t 1.005938600 -s 20 -d -1 -p DYMOUM -e 60 -c 2 -a 0 -i 3 -k RTR
r -t 1.005938689 -s 1 -d -1 -p DYMOUM -e 60 -c 2 -a 0 -i 3 -k RTR
+ -t 1.005938689 -s 1 -d -1 -p DYMOUM -e 72 -c 2 -a 0 -i 15 -k RTR 
- -t 1.005938689 -s 1 -d -1 -p DYMOUM -e 72 -c 2 -a 0 -i 15 -k RTR
h -t 1.005938689 -s 1 -d -1 -p DYMOUM -e 72 -c 2 -a 0 -i 15 -k RTR
r -t 1.005938757 -s 9 -d -1 -p DYMOUM -e 60 -c 2 -a 0 -i 3 -k RTR
r -t 1.005938778 -s 4 -d -1 -p DYMOUM -e 60 -c 2 -a 0 -i 3 -k RTR
+ -t 1.005938778 -s 4 -d -1 -p DYMOUM -e 72 -c 2 -a 0 -i 16 -k RTR 
- -t 1.005938778 -s 4 -d -1 -p DYMOUM -e 72 -c 2 -a 0 -i 16 -k RTR
h -t 1.005938778 -s 4 -d -1 -p DYMOUM -e 72 -c 2 -a 0 -i 16 -k RTR
r -t 1.005938823 -s 23 -d -1 -p DYMOUM -e 60 -c 2 -a 0 -i 3 -k RTR
r -t 1.005938885 -s 19 -d -1 -p DYMOUM -e 60 -c 2 -a 0 -i 3 -k RTR
+ -t 1.005938885 -s 19 -d -1 -p DYMOUM -e 72 -c 2 -a 0 -i 17 -k RTR 
- -t 1.005938885 -s 19 -d -1 -p DYMOUM -e 72 -c 2 -a 0 -i 17 -k RTR
h -t 1.005938885 -s 19 -d -1 -p DYMOUM -e 72 -c 2 -a 0 -i 17 -k RTR
r -t 1.005938955 -s 18 -d -1 -p DYMOUM -e 60 -c 2 -a 0 -i 3 -k RTR
+ -t 1.005938955 -s 18 -d -1 -p DYMOUM -e 72 -c 2 -a 0 -i 18 -k RTR 
- -t 1.005938955 -s 18 -d -1 -p DYMOUM -e 72 -c 2 -a 0 -i 18 -k RTR
h -t 1.005938955 -s 18 -d -1 -p DYMOUM -e 72 -c 2 -a 0 -i 18 -k RTR
r -t 1.005938971 -s 24 -d -1 -p DYMOUM -e 60 -c 2 -a 0 -i 3 -k RTR
r -t 1.007165196 -s 7 -d -1 -p DYMOUM -e 84 -c 2 -a 0 -i 9 -k RTR
r -t 1.007165383 -s 10 -d -1 -p DYMOUM -e 84 -c 2 -a 0 -i 9 -k RTR
r -t 1.007165418 -s 9 -d -1 -p DYMOUM -e 84 -c 2 -a 0 -i 9 -k RTR
r -t 1.007165442 -s 4 -d -1 -p DYMOUM -e 84 -c 2 -a 0 -i 9 -k RTR
r -t 1.007165450 -s 6 -d -1 -p DYMOUM -e 84 -c 2 -a 0 -i 9 -k RTR
r -t 1.007165516 -s 13 -d -1 -p DYMOUM -e 84 -c 2 -a 0 -i 9 -k RTR
r -t 1.007165521 -s 8 -d -1 -p DYMOUM -e 84 -c 2 -a 0 -i 9 -k RTR
+ -t 1.007165521 -s 8 -d -1 -p DYMOUM -e 96 -c 2 -a 0 -i 19 -k RTR 
- -t 1.007165521 -s 8 -d -1 -p DYMOUM -e 96 -c 2 -a 0 -i 19 -k RTR
h -t 1.007165521 -s 8 -d -1 -p DYMOUM -e 96 -c 2 -a 0 -i 19 -k RTR
r -t 1.007165528 -s 12 -d -1 -p DYMOUM -e 84 -c 2 -a 0 -i 9 -k RTR
r -t 1.007165700 -s 3 -d -1 -p DYMOUM -e 84 -c 2 -a 0 -i 9 -k RTR
+ -t 1.007165700 -s 3 -d -1 -p DYMOUM -e 96 -c 2 -a 0 -i 20 -k RTR 
- -t 1.007165700 -s 3 -d -1 -p DYMOUM -e 96 -c 2 -a 0 -i 20 -k RTR
h -t 1.007165700 -s 3 -d -1 -p DYMOUM -e 96 -c 2 -a 0 -i 20 -k RTR
r -t 1.007165712 -s 5 -d -1 -p DYMOUM -e 84 -c 2 -a 0 -i 9 -k RTR
+ -t 1.007165712 -s 5 -d -1 -p DYMOUM -e 96 -c 2 -a 0 -i 21 -k RTR 
- -t 1.007165712 -s 5 -d -1 -p DYMOUM -e 96 -c 2 -a 0 -i 21 -k RTR
h -t 1.007165712 -s 5 -d -1 -p DYMOUM -e 96 -c 2 -a 0 -i 21 -k RTR
r -t 1.007165717 -s 11 -d -1 -p DYMOUM -e 84 -c 2 -a 0 -i 9 -k RTR
+ -t 1.007165717 -s 11 -d 18 -p DYMOUM -e 48 -c 2 -a 0 -i 22 -k RTR 
- -t 1.007165717 -s 11 -d 18 -p DYMOUM -e 48 -c 2 -a 0 -i 22 -k RTR
h -t 1.007165717 -s 11 -d 18 -p DYMOUM -e 48 -c 2 -a 0 -i 22 -k RTR
r -t 1.007165770 -s 15 -d -1 -p DYMOUM -e 84 -c 2 -a 0 -i 9 -k RTR
r -t 1.008517806 -s 5 -d -1 -p DYMOUM -e 96 -c 2 -a 0 -i 19 -k RTR
r -t 1.008517849 -s 7 -d -1 -p DYMOUM -e 96 -c 2 -a 0 -i 19 -k RTR
r -t 1.008517900 -s 11 -d -1 -p DYMOUM -e 96 -c 2 -a 0 -i 19 -k RTR
r -t 1.008517929 -s 10 -d -1 -p DYMOUM -e 96 -c 2 -a 0 -i 19 -k RTR
r -t 1.008517999 -s 16 -d -1 -p DYMOUM -e 96 -c 2 -a 0 -i 19 -k RTR
+ -t 1.008517999 -s 16 -d 8 -p DYMOUM -e 48 -c 2 -a 0 -i 23 -k RTR 
- -t 1.008517999 -s 16 -d 8 -p DYMOUM -e 48 -c 2 -a 0 -i 23 -k RTR
h -t 1.008517999 -s 16 -d 8 -p DYMOUM -e 48 -c 2 -a 0 -i 23 -k RTR
r -t 1.008518087 -s 18 -d -1 -p DYMOUM -e 96 -c 2 -a 0 -i 19 -k RTR
r -t 1.008518103 -s 2 -d -1 -p DYMOUM -e 96 -c 2 -a 0 -i 19 -k RTR
+ -t 1.008518103 -s 2 -d -1 -p DYMOUM -e 108 -c 2 -a 0 -i 24 -k RTR 
- -t 1.008518103 -s 2 -d -1 -p DYMOUM -e 108 -c 2 -a 0 -i 24 -k RTR
h -t 1.008518103 -s 2 -d -1 -p DYMOUM -e 108 -c 2 -a 0 -i 24 -k RTR
r -t 1.008518133 -s 17 -d -1 -p DYMOUM -e 96 -c 2 -a 0 -i 19 -k RTR
+ -t 1.008518133 -s 17 -d 8 -p DYMOUM -e 48 -c 2 -a 0 -i 25 -k RTR 
- -t 1.008518133 -s 17 -d 8 -p DYMOUM -e 48 -c 2 -a 0 -i 25 -k RTR
h -t 1.008518133 -s 17 -d 8 -p DYMOUM -e 48 -c 2 -a 0 -i 25 -k RTR
r -t 1.008518135 -s 3 -d -1 -p DYMOUM -e 96 -c 2 -a 0 -i 19 -k RTR
r -t 1.008518164 -s 14 -d -1 -p DYMOUM -e 96 -c 2 -a 0 -i 19 -k RTR
+ -t 1.008518164 -s 14 -d 8 -p DYMOUM -e 48 -c 2 -a 0 -i 26 -k RTR 
- -t 1.008518164 -s 14 -d 8 -p DYMOUM -e 48 -c 2 -a 0 -i 26 -k RTR
h -t 1.008518164 -s 14 -d 8 -p DYMOUM -e 48 -c 2 -a 0 -i 26 -k RTR
r -t 1.008518226 -s 13 -d -1 -p DYMOUM -e 96 -c 2 -a 0 -i 19 -k RTR
r -t 1.008518256 -s 4 -d -1 -p DYMOUM -e 96 -c 2 -a 0 -i 19 -k RTR
r -t 1.008518266 -s 6 -d -1 -p DYMOUM -e 96 -c 2 -a 0 -i 19 -k RTR
r -t 1.009804226 -s 13 -d -1 -p DYMOUM -e 84 -c 2 -a 0 -i 14 -k RTR
r -t 1.011298598 -s 7 -d -1 -p DYMOUM -e 72 -c 2 -a 0 -i 18 -k RTR
r -t 1.011298785 -s 10 -d -1 -p DYMOUM -e 72 -c 2 -a 0 -i 18 -k RTR
r -t 1.011298820 -s 9 -d -1 -p DYMOUM -e 72 -c 2 -a 0 -i 18 -k RTR
r -t 1.011298844 -s 4 -d -1 -p DYMOUM -e 72 -c 2 -a 0 -i 18 -k RTR
r -t 1.011298852 -s 6 -d -1 -p DYMOUM -e 72 -c 2 -a 0 -i 18 -k RTR
r -t 1.011298918 -s 13 -d -1 -p DYMOUM -e 72 -c 2 -a 0 -i 18 -k RTR
r -t 1.011298923 -s 8 -d -1 -p DYMOUM -e 72 -c 2 -a 0 -i 18 -k RTR
+ -t 1.011298923 -s 8 -d -1 -p DYMOUM -e 84 -c 2 -a 0 -i 27 -k RTR 
- -t 1.011298923 -s 8 -d -1 -p DYMOUM -e 84 -c 2 -a 0 -i 27 -k RTR
h -t 1.011298923 -s 8 -d -1 -p DYMOUM -e 84 -c 2 -a 0 -i 27 -k RTR
r -t 1.011298930 -s 12 -d -1 -p DYMOUM -e 72 -c 2 -a 0 -i 18 -k RTR
r -t 1.011299102 -s 3 -d -1 -p DYMOUM -e 72 -c 2 -a 0 -i 18 -k RTR
+ -t 1.011299102 -s 3 -d -1 -p DYMOUM -e 84 -c 2 -a 0 -i 28 -k RTR 
- -t 1.011299102 -s 3 -d -1 -p DYMOUM -e 84 -c 2 -a 0 -i 28 -k RTR
h -t 1.011299102 -s 3 -d -1 -p DYMOUM -e 84 -c 2 -a 0 -i 28 -k RTR
r -t 1.011299113 -s 5 -d -1 -p DYMOUM -e 72 -c 2 -a 0 -i 18 -k RTR
+ -t 1.011299113 -s 5 -d -1 -p DYMOUM -e 84 -c 2 -a 0 -i 29 -k RTR 
- -t 1.011299113 -s 5 -d -1 -p DYMOUM -e 84 -c 2 -a 0 -i 29 -k RTR
h -t 1.011299113 -s 5 -d -1 -p DYMOUM -e 84 -c 2 -a 0 -i 29 -k RTR
r -t 1.011299119 -s 11 -d -1 -p DYMOUM -e 72 -c 2 -a 0 -i 18 -k RTR
+ -t 1.011299119 -s 11 -d 18 -p DYMOUM -e 48 -c 2 -a 0 -i 30 -k RTR 
- -t 1.011299119 -s 11 -d 18 -p DYMOUM -e 48 -c 2 -a 0 -i 30 -k RTR
h -t 1.011299119 -s 11 -d 18 -p DYMOUM -e 48 -c 2 -a 0 -i 30 -k RTR
d -t 1.011299119 -s 11 -d 18 -p DYMOUM -e 48 -c 2 -a 0 -i 22 -k IFQ
r -t 1.011299172 -s 15 -d -1 -p DYMOUM -e 72 -c 2 -a 0 -i 18 -k RTR
r -t 1.012525042 -s 6 -d -1 -p DYMOUM -e 84 -c 2 -a 0 -i 13 -k RTR
r -t 1.012525207 -s 5 -d -1 -p DYMOUM -e 84 -c 2 -a 0 -i 27 -k RTR
r -t 1.012525511 -s 12 -d -1 -p DYMOUM -e 84 -c 2 -a 0 -i 13 -k RTR
r -t 1.014212413 -s 0 -d -1 -p DYMOUM -e 96 -c 2 -a 0 -i 20 -k RTR
+ -t 1.014212413 -s 0 -d -1 -p DYMOUM -e 108 -c 2 -a 0 -i 31 -k RTR 
- -t 1.014212413 -s 0 -d -1 -p DYMOUM -e 108 -c 2 -a 0 -i 31 -k RTR
h -t 1.014212413 -s 0 -d -1 -p DYMOUM -e 108 -c 2 -a 0 -i 31 -k RTR
r -t 1.014212522 -s 2 -d -1 -p DYMOUM -e 96 -c 2 -a 0 -i 20 -k RTR
r -t 1.014212549 -s 4 -d -1 -p DYMOUM -e 96 -c 2 -a 0 -i 20 -k RTR
r -t 1.014212563 -s 5 -d -1 -p DYMOUM -e 96 -c 2 -a 0 -i 20 -k RTR
r -t 1.014212723 -s 8 -d -1 -p DYMOUM -e 96 -c 2 -a 0 -i 20 -k RTR
r -t 1.014212773 -s 7 -d -1 -p DYMOUM -e 96 -c 2 -a 0 -i 20 -k RTR
r -t 1.014212784 -s 1 -d -1 -p DYMOUM -e 96 -c 2 -a 0 -i 20 -k RTR
r -t 1.014212855 -s 18 -d -1 -p DYMOUM -e 96 -c 2 -a 0 -i 20 -k RTR
r -t 1.014212875 -s 19 -d -1 -p DYMOUM -e 96 -c 2 -a 0 -i 20 -k RTR
r -t 1.014212926 -s 17 -d -1 -p DYMOUM -e 96 -c 2 -a 0 -i 20 -k RTR
r -t 1.015438971 -s 1 -d -1 -p DYMOUM -e 84 -c 2 -a 0 -i 12 -k RTR
r -t 1.015438989 -s 3 -d -1 -p DYMOUM -e 84 -c 2 -a 0 -i 12 -k RTR
r -t 1.015439037 -s 18 -d -1 -p DYMOUM -e 84 -c 2 -a 0 -i 12 -k RTR
r -t 1.015439113 -s 7 -d -1 -p DYMOUM -e 84 -c 2 -a 0 -i 12 -k RTR
r -t 1.015439181 -s 19 -d -1 -p DYMOUM -e 84 -c 2 -a 0 -i 12 -k RTR
r -t 1.015439187 -s 15 -d -1 -p DYMOUM -e 84 -c 2 -a 0 -i 12 -k RTR
r -t 1.015439198 -s 0 -d -1 -p DYMOUM -e 84 -c 2 -a 0 -i 12 -k RTR
+ -t 1.015439198 -s 0 -d -1 -p DYMOUM -e 96 -c 2 -a 0 -i 32 -k RTR 
- -t 1.015439198 -s 0 -d -1 -p DYMOUM -e 96 -c 2 -a 0 -i 32 -k RTR
h -t 1.015439198 -s 0 -d -1 -p DYMOUM -e 96 -c 2 -a 0 -i 32 -k RTR
r -t 1.015439279 -s 9 -d -1 -p DYMOUM -e 84 -c 2 -a 0 -i 12 -k RTR
r -t 1.015439284 -s 8 -d -1 -p DYMOUM -e 84 -c 2 -a 0 -i 12 -k RTR
r -t 1.015439293 -s 5 -d -1 -p DYMOUM -e 84 -c 2 -a 0 -i 12 -k RTR
r -t 1.015439366 -s 20 -d -1 -p DYMOUM -e 84 -c 2 -a 0 -i 12 -k RTR
r -t 1.015439377 -s 2 -d -1 -p DYMOUM -e 84 -c 2 -a 0 -i 12 -k RTR
+ -t 1.015439377 -s 2 -d -1 -p DYMOUM -e 96 -c 2 -a 0 -i 33 -k RTR 
- -t 1.015439377 -s 2 -d -1 -p DYMOUM -e 96 -c 2 -a 0 -i 33 -k RTR
h -t 1.015439377 -s 2 -d -1 -p DYMOUM -e 96 -c 2 -a 0 -i 33 -k RTR
r -t 1.016917502 -s 3 -d -1 -p DYMOUM -e 108 -c 2 -a 0 -i 31 -k RTR
r -t 1.016917698 -s 2 -d -1 -p DYMOUM -e 108 -c 2 -a 0 -i 31 -k RTR
r -t 1.016917848 -s 4 -d -1 -p DYMOUM -e 108 -c 2 -a 0 -i 31 -k RTR
r -t 1.016917880 -s 5 -d -1 -p DYMOUM -e 108 -c 2 -a 0 -i 31 -k RTR
r -t 1.016917892 -s 19 -d -1 -p DYMOUM -e 108 -c 2 -a 0 -i 31 -k RTR
r -t 1.016917903 -s 1 -d -1 -p DYMOUM -e 108 -c 2 -a 0 -i 31 -k RTR
r -t 1.018163806 -s 0 -d -1 -p DYMOUM -e 84 -c 2 -a 0 -i 28 -k RTR
r -t 1.018260313 -s 17 -d -1 -p DYMOUM -e 96 -c 2 -a 0 -i 21 -k RTR
r -t 1.018260336 -s 16 -d -1 -p DYMOUM -e 96 -c 2 -a 0 -i 21 -k RTR
r -t 1.019755595 -s 20 -d -1 -p DYMOUM -e 72 -c 2 -a 0 -i 17 -k RTR
r -t 1.020042477 -s 5 -d -1 -p DYMOUM -e 108 -c 2 -a 0 -i 24 -k RTR
r -t 1.020042591 -s 3 -d -1 -p DYMOUM -e 108 -c 2 -a 0 -i 24 -k RTR
r -t 1.020042620 -s 17 -d -1 -p DYMOUM -e 108 -c 2 -a 0 -i 24 -k RTR
r -t 1.020042761 -s 8 -d -1 -p DYMOUM -e 108 -c 2 -a 0 -i 24 -k RTR
r -t 1.020042805 -s 16 -d -1 -p DYMOUM -e 108 -c 2 -a 0 -i 24 -k RTR
r -t 1.021214427 -s 21 -d -1 -p DYMOUM -e 60 -c 2 -a 0 -i 2 -k RTR
r -t 1.021214523 -s 23 -d -1 -p DYMOUM -e 60 -c 2 -a 0 -i 2 -k RTR
r -t 1.021214826 -s 24 -d -1 -p DYMOUM -e 60 -c 2 -a 0 -i 2 -k RTR
r -t 1.021444477 -s 5 -d -1 -p DYMOUM -e 96 -c 2 -a 0 -i 33 -k RTR
r -t 1.021444591 -s 3 -d -1 -p DYMOUM -e 96 -c 2 -a 0 -i 33 -k RTR
r -t 1.021444620 -s 17 -d -1 -p DYMOUM -e 96 -c 2 -a 0 -i 33 -k RTR
r -t 1.021444678 -s 0 -d -1 -p DYMOUM -e 96 -c 2 -a 0 -i 33 -k RTR
r -t 1.021444761 -s 8 -d -1 -p DYMOUM -e 96 -c 2 -a 0 -i 33 -k RTR
r -t 1.021444805 -s 16 -d -1 -p DYMOUM -e 96 -c 2 -a 0 -i 33 -k RTR
r -t 1.022864243 -s 21 -d -1 -p DYMOUM -e 60 -c 2 -a 0 -i 4 -k RTR
r -t 1.022864402 -s 22 -d -1 -p DYMOUM -e 60 -c 2 -a 0 -i 4 -k RTR
+ -t 1.029036312 -s 8 -d 18 -p DYMOUM -e 60 -c 2 -a 0 -i 34 -k RTR 
- -t 1.029036312 -s 8 -d 18 -p DYMOUM -e 60 -c 2 -a 0 -i 34 -k RTR
h -t 1.029036312 -s 8 -d 18 -p DYMOUM -e 60 -c 2 -a 0 -i 34 -k RTR
r -t 1.030616881 -s 8 -d -1 -p DYMOUM -e 84 -c 2 -a 0 -i 29 -k RTR
r -t 1.030616895 -s 2 -d -1 -p DYMOUM -e 84 -c 2 -a 0 -i 29 -k RTR
r -t 1.030617030 -s 17 -d -1 -p DYMOUM -e 84 -c 2 -a 0 -i 29 -k RTR
+ -t 1.030617030 -s 17 -d 5 -p DYMOUM -e 48 -c 2 -a 0 -i 35 -k RTR 
- -t 1.030617030 -s 17 -d 5 -p DYMOUM -e 48 -c 2 -a 0 -i 35 -k RTR
h -t 1.030617030 -s 17 -d 5 -p DYMOUM -e 48 -c 2 -a 0 -i 35 -k RTR
r -t 1.030617051 -s 3 -d -1 -p DYMOUM -e 84 -c 2 -a 0 -i 29 -k RTR
r -t 1.030617053 -s 16 -d -1 -p DYMOUM -e 84 -c 2 -a 0 -i 29 -k RTR
+ -t 1.030617053 -s 16 -d 5 -p DYMOUM -e 48 -c 2 -a 0 -i 36 -k RTR 
- -t 1.030617053 -s 16 -d 5 -p DYMOUM -e 48 -c 2 -a 0 -i 36 -k RTR
h -t 1.030617053 -s 16 -d 5 -p DYMOUM -e 48 -c 2 -a 0 -i 36 -k RTR
r -t 1.030617147 -s 7 -d -1 -p DYMOUM -e 84 -c 2 -a 0 -i 29 -k RTR
r -t 1.030617205 -s 11 -d -1 -p DYMOUM -e 84 -c 2 -a 0 -i 29 -k RTR
r -t 1.030617278 -s 0 -d -1 -p DYMOUM -e 84 -c 2 -a 0 -i 29 -k RTR
r -t 1.030617287 -s 10 -d -1 -p DYMOUM -e 84 -c 2 -a 0 -i 29 -k RTR
r -t 1.030617340 -s 4 -d -1 -p DYMOUM -e 84 -c 2 -a 0 -i 29 -k RTR
r -t 1.030617354 -s 18 -d -1 -p DYMOUM -e 84 -c 2 -a 0 -i 29 -k RTR
+ -t 1.035674364 -s 8 -d 18 -p DYMOUM -e 60 -c 2 -a 0 -i 37 -k RTR 
- -t 1.035674364 -s 8 -d 18 -p DYMOUM -e 60 -c 2 -a 0 -i 37 -k RTR
h -t 1.035674364 -s 8 -d 18 -p DYMOUM -e 60 -c 2 -a 0 -i 37 -k RTR
r -t 1.037215234 -s 13 -d -1 -p DYMOUM -e 84 -c 2 -a 0 -i 10 -k RTR
r -t 1.037215454 -s 10 -d -1 -p DYMOUM -e 84 -c 2 -a 0 -i 10 -k RTR
r -t 1.037215580 -s 12 -d -1 -p DYMOUM -e 84 -c 2 -a 0 -i 10 -k RTR
r -t 1.037215605 -s 18 -d -1 -p DYMOUM -e 84 -c 2 -a 0 -i 10 -k RTR
r -t 1.037215628 -s 7 -d -1 -p DYMOUM -e 84 -c 2 -a 0 -i 10 -k RTR
r -t 1.037215684 -s 14 -d -1 -p DYMOUM -e 84 -c 2 -a 0 -i 10 -k RTR
+ -t 1.037215684 -s 14 -d 6 -p DYMOUM -e 48 -c 2 -a 0 -i 38 -k RTR 
- -t 1.037215684 -s 14 -d 6 -p DYMOUM -e 48 -c 2 -a 0 -i 38 -k RTR
h -t 1.037215684 -s 14 -d 6 -p DYMOUM -e 48 -c 2 -a 0 -i 38 -k RTR
r -t 1.037215744 -s 9 -d -1 -p DYMOUM -e 84 -c 2 -a 0 -i 10 -k RTR
r -t 1.037215781 -s 11 -d -1 -p DYMOUM -e 84 -c 2 -a 0 -i 10 -k RTR
r -t 1.037215855 -s 8 -d -1 -p DYMOUM -e 84 -c 2 -a 0 -i 10 -k RTR
r -t 1.038421878 -s 9 -d -1 -p DYMOUM -e 84 -c 2 -a 0 -i 8 -k RTR
r -t 1.038422233 -s 24 -d -1 -p DYMOUM -e 84 -c 2 -a 0 -i 8 -k RTR
r -t 1.039897074 -s 19 -d -1 -p DYMOUM -e 72 -c 2 -a 0 -i 15 -k RTR
r -t 1.039897299 -s 20 -d -1 -p DYMOUM -e 72 -c 2 -a 0 -i 15 -k RTR
r -t 1.039897381 -s 15 -d -1 -p DYMOUM -e 72 -c 2 -a 0 -i 15 -k RTR
r -t 1.040089469 -s 3 -d -1 -p DYMOUM -e 96 -c 2 -a 0 -i 32 -k RTR
r -t 1.040089665 -s 2 -d -1 -p DYMOUM -e 96 -c 2 -a 0 -i 32 -k RTR
r -t 1.041564237 -s 1 -d -1 -p DYMOUM -e 72 -c 2 -a 0 -i 16 -k RTR
r -t 1.041564255 -s 3 -d -1 -p DYMOUM -e 72 -c 2 -a 0 -i 16 -k RTR
r -t 1.041564302 -s 18 -d -1 -p DYMOUM -e 72 -c 2 -a 0 -i 16 -k RTR
r -t 1.041564446 -s 19 -d -1 -p DYMOUM -e 72 -c 2 -a 0 -i 16 -k RTR
r -t 1.041564452 -s 15 -d -1 -p DYMOUM -e 72 -c 2 -a 0 -i 16 -k RTR
r -t 1.041564544 -s 9 -d -1 -p DYMOUM -e 72 -c 2 -a 0 -i 16 -k RTR
r -t 1.041564632 -s 20 -d -1 -p DYMOUM -e 72 -c 2 -a 0 -i 16 -k RTR
+ -t 1.043640247 -s 18 -d 15 -p DYMOUM -e 72 -c 2 -a 0 -i 39 -k RTR 
- -t 1.043640247 -s 18 -d 15 -p DYMOUM -e 72 -c 2 -a 0 -i 39 -k RTR
h -t 1.043640247 -s 18 -d 15 -p DYMOUM -e 72 -c 2 -a 0 -i 39 -k RTR
+ -t 1.048356954 -s 15 -d 21 -p DYMOUM -e 84 -c 2 -a 0 -i 40 -k RTR 
- -t 1.048356954 -s 15 -d 21 -p DYMOUM -e 84 -c 2 -a 0 -i 40 -k RTR
h -t 1.048356954 -s 15 -d 21 -p DYMOUM -e 84 -c 2 -a 0 -i 40 -k RTR
+ -t 1.053350157 -s 8 -d 18 -p DYMOUM -e 60 -c 2 -a 0 -i 41 -k RTR 
- -t 1.053350157 -s 8 -d 18 -p DYMOUM -e 60 -c 2 -a 0 -i 41 -k RTR
h -t 1.053350157 -s 8 -d 18 -p DYMOUM -e 60 -c 2 -a 0 -i 41 -k RTR
+ -t 1.056829349 -s 18 -d 15 -p DYMOUM -e 72 -c 2 -a 0 -i 42 -k RTR 
- -t 1.056829349 -s 18 -d 15 -p DYMOUM -e 72 -c 2 -a 0 -i 42 -k RTR
h -t 1.056829349 -s 18 -d 15 -p DYMOUM -e 72 -c 2 -a 0 -i 42 -k RTR
+ -t 1.059115613 -s 18 -d 15 -p DYMOUM -e 72 -c 2 -a 0 -i 43 -k RTR 
- -t 1.059115613 -s 18 -d 15 -p DYMOUM -e 72 -c 2 -a 0 -i 43 -k RTR
h -t 1.059115613 -s 18 -d 15 -p DYMOUM -e 72 -c 2 -a 0 -i 43 -k RTR
+ -t 1.061438059 -s 15 -d 21 -p DYMOUM -e 84 -c 2 -a 0 -i 44 -k RTR 
- -t 1.061438059 -s 15 -d 21 -p DYMOUM -e 84 -c 2 -a 0 -i 44 -k RTR
h -t 1.061438059 -s 15 -d 21 -p DYMOUM -e 84 -c 2 -a 0 -i 44 -k RTR
d -t 1.061438059 -s 15 -d 21 -p DYMOUM -e 84 -c 2 -a 0 -i 40 -k IFQ
+ -t 1.064619320 -s 15 -d 21 -p DYMOUM -e 84 -c 2 -a 0 -i 45 -k RTR 
- -t 1.064619320 -s 15 -d 21 -p DYMOUM -e 84 -c 2 -a 0 -i 45 -k RTR
h -t 1.064619320 -s 15 -d 21 -p DYMOUM -e 84 -c 2 -a 0 -i 45 -k RTR
d -t 1.064619320 -s 15 -d 21 -p DYMOUM -e 84 -c 2 -a 0 -i 44 -k IFQ
+ -t 1.068785130 -s 18 -d 15 -p DYMOUM -e 60 -c 2 -a 0 -i 46 -k RTR 
- -t 1.068785130 -s 18 -d 15 -p DYMOUM -e 60 -c 2 -a 0 -i 46 -k RTR
h -t 1.068785130 -s 18 -d 15 -p DYMOUM -e 60 -c 2 -a 0 -i 46 -k RTR
+ -t 1.070931575 -s 15 -d 21 -p DYMOUM -e 72 -c 2 -a 0 -i 47 -k RTR 
- -t 1.070931575 -s 15 -d 21 -p DYMOUM -e 72 -c 2 -a 0 -i 47 -k RTR
h -t 1.070931575 -s 15 -d 21 -p DYMOUM -e 72 -c 2 -a 0 -i 47 -k RTR
d -t 1.070931575 -s 15 -d 21 -p DYMOUM -e 84 -c 2 -a 0 -i 45 -k IFQ
d -t 1.070931575 -s 15 -d 21 -p DYMOUM -e 72 -c 2 -a 0 -i 47 -k IFQ
+ -t 1.081920000 -s 21 -d -1 -p cbr -e 512 -c 2 -a 0 -i 48 -k AGT 
- -t 1.081920000 -s 21 -d -1 -p cbr -e 512 -c 2 -a 0 -i 48 -k AGT
h -t 1.081920000 -s 21 -d -1 -p cbr -e 512 -c 2 -a 0 -i 48 -k AGT
+ -t 1.163840000 -s 21 -d -1 -p cbr -e 512 -c 2 -a 0 -i 49 -k AGT 
- -t 1.163840000 -s 21 -d -1 -p cbr -e 512 -c 2 -a 0 -i 49 -k AGT
h -t 1.163840000 -s 21 -d -1 -p cbr -e 512 -c 2 -a 0 -i 49 -k AGT
+ -t 1.245760000 -s 21 -d -1 -p cbr -e 512 -c 2 -a 0 -i 50 -k AGT 
- -t 1.245760000 -s 21 -d -1 -p cbr -e 512 -c 2 -a 0 -i 50 -k AGT
h -t 1.245760000 -s 21 -d -1 -p cbr -e 512 -c 2 -a 0 -i 50 -k AGT
+ -t 1.327680000 -s 21 -d -1 -p cbr -e 512 -c 2 -a 0 -i 51 -k AGT 
- -t 1.327680000 -s 21 -d -1 -p cbr -e 512 -c 2 -a 0 -i 51 -k AGT
h -t 1.327680000 -s 21 -d -1 -p cbr -e 512 -c 2 -a 0 -i 51 -k AGT
+ -t 1.409600000 -s 21 -d -1 -p cbr -e 512 -c 2 -a 0 -i 52 -k AGT 
- -t 1.409600000 -s 21 -d -1 -p cbr -e 512 -c 2 -a 0 -i 52 -k AGT
h -t 1.409600000 -s 21 -d -1 -p cbr -e 512 -c 2 -a 0 -i 52 -k AGT
+ -t 1.491520000 -s 21 -d -1 -p cbr -e 512 -c 2 -a 0 -i 53 -k AGT 
- -t 1.491520000 -s 21 -d -1 -p cbr -e 512 -c 2 -a 0 -i 53 -k AGT
h -t 1.491520000 -s 21 -d -1 -p cbr -e 512 -c 2 -a 0 -i 53 -k AGT
+ -t 1.573440000 -s 21 -d -1 -p cbr -e 512 -c 2 -a 0 -i 54 -k AGT 
- -t 1.573440000 -s 21 -d -1 -p cbr -e 512 -c 2 -a 0 -i 54 -k AGT
h -t 1.573440000 -s 21 -d -1 -p cbr -e 512 -c 2 -a 0 -i 54 -k AGT
+ -t 1.655360000 -s 21 -d -1 -p cbr -e 512 -c 2 -a 0 -i 55 -k AGT 
- -t 1.655360000 -s 21 -d -1 -p cbr -e 512 -c 2 -a 0 -i 55 -k AGT
h -t 1.655360000 -s 21 -d -1 -p cbr -e 512 -c 2 -a 0 -i 55 -k AGT
+ -t 1.737280000 -s 21 -d -1 -p cbr -e 512 -c 2 -a 0 -i 56 -k AGT 
- -t 1.737280000 -s 21 -d -1 -p cbr -e 512 -c 2 -a 0 -i 56 -k AGT
h -t 1.737280000 -s 21 -d -1 -p cbr -e 512 -c 2 -a 0 -i 56 -k AGT
n -t 1.8 -s 1 -S COLOR -c red -o red -i red -I red
+ -t 1.819200000 -s 21 -d -1 -p cbr -e 512 -c 2 -a 0 -i 57 -k AGT 
- -t 1.819200000 -s 21 -d -1 -p cbr -e 512 -c 2 -a 0 -i 57 -k AGT
h -t 1.819200000 -s 21 -d -1 -p cbr -e 512 -c 2 -a 0 -i 57 -k AGT
+ -t 1.901120000 -s 21 -d -1 -p cbr -e 512 -c 2 -a 0 -i 58 -k AGT 
- -t 1.901120000 -s 21 -d -1 -p cbr -e 512 -c 2 -a 0 -i 58 -k AGT
h -t 1.901120000 -s 21 -d -1 -p cbr -e 512 -c 2 -a 0 -i 58 -k AGT
+ -t 1.983040000 -s 21 -d -1 -p cbr -e 512 -c 2 -a 0 -i 59 -k AGT 
- -t 1.983040000 -s 21 -d -1 -p cbr -e 512 -c 2 -a 0 -i 59 -k AGT
h -t 1.983040000 -s 21 -d -1 -p cbr -e 512 -c 2 -a 0 -i 59 -k AGT
+ -t 2.064960000 -s 21 -d -1 -p cbr -e 512 -c 2 -a 0 -i 60 -k AGT 
- -t 2.064960000 -s 21 -d -1 -p cbr -e 512 -c 2 -a 0 -i 60 -k AGT
h -t 2.064960000 -s 21 -d -1 -p cbr -e 512 -c 2 -a 0 -i 60 -k AGT
+ -t 2.146880000 -s 21 -d -1 -p cbr -e 512 -c 2 -a 0 -i 61 -k AGT 
- -t 2.146880000 -s 21 -d -1 -p cbr -e 512 -c 2 -a 0 -i 61 -k AGT
h -t 2.146880000 -s 21 -d -1 -p cbr -e 512 -c 2 -a 0 -i 61 -k AGT
+ -t 2.228800000 -s 21 -d -1 -p cbr -e 512 -c 2 -a 0 -i 62 -k AGT 
- -t 2.228800000 -s 21 -d -1 -p cbr -e 512 -c 2 -a 0 -i 62 -k AGT
h -t 2.228800000 -s 21 -d -1 -p cbr -e 512 -c 2 -a 0 -i 62 -k AGT
+ -t 2.310720000 -s 21 -d -1 -p cbr -e 512 -c 2 -a 0 -i 63 -k AGT 
- -t 2.310720000 -s 21 -d -1 -p cbr -e 512 -c 2 -a 0 -i 63 -k AGT
h -t 2.310720000 -s 21 -d -1 -p cbr -e 512 -c 2 -a 0 -i 63 -k AGT
+ -t 2.392640000 -s 21 -d -1 -p cbr -e 512 -c 2 -a 0 -i 64 -k AGT 
- -t 2.392640000 -s 21 -d -1 -p cbr -e 512 -c 2 -a 0 -i 64 -k AGT
h -t 2.392640000 -s 21 -d -1 -p cbr -e 512 -c 2 -a 0 -i 64 -k AGT
+ -t 2.474560000 -s 21 -d -1 -p cbr -e 512 -c 2 -a 0 -i 65 -k AGT 
- -t 2.474560000 -s 21 -d -1 -p cbr -e 512 -c 2 -a 0 -i 65 -k AGT
h -t 2.474560000 -s 21 -d -1 -p cbr -e 512 -c 2 -a 0 -i 65 -k AGT
+ -t 2.556480000 -s 21 -d -1 -p cbr -e 512 -c 2 -a 0 -i 66 -k AGT 
- -t 2.556480000 -s 21 -d -1 -p cbr -e 512 -c 2 -a 0 -i 66 -k AGT
h -t 2.556480000 -s 21 -d -1 -p cbr -e 512 -c 2 -a 0 -i 66 -k AGT
+ -t 2.638400000 -s 21 -d -1 -p cbr -e 512 -c 2 -a 0 -i 67 -k AGT 
- -t 2.638400000 -s 21 -d -1 -p cbr -e 512 -c 2 -a 0 -i 67 -k AGT
h -t 2.638400000 -s 21 -d -1 -p cbr -e 512 -c 2 -a 0 -i 67 -k AGT
+ -t 2.720320000 -s 21 -d -1 -p cbr -e 512 -c 2 -a 0 -i 68 -k AGT 
- -t 2.720320000 -s 21 -d -1 -p cbr -e 512 -c 2 -a 0 -i 68 -k AGT
h -t 2.720320000 -s 21 -d -1 -p cbr -e 512 -c 2 -a 0 -i 68 -k AGT
+ -t 2.802240000 -s 21 -d -1 -p cbr -e 512 -c 2 -a 0 -i 69 -k AGT 
- -t 2.802240000 -s 21 -d -1 -p cbr -e 512 -c 2 -a 0 -i 69 -k AGT
h -t 2.802240000 -s 21 -d -1 -p cbr -e 512 -c 2 -a 0 -i 69 -k AGT
+ -t 2.884160000 -s 21 -d -1 -p cbr -e 512 -c 2 -a 0 -i 70 -k AGT 
- -t 2.884160000 -s 21 -d -1 -p cbr -e 512 -c 2 -a 0 -i 70 -k AGT
h -t 2.884160000 -s 21 -d -1 -p cbr -e 512 -c 2 -a 0 -i 70 -k AGT
+ -t 2.966080000 -s 21 -d -1 -p cbr -e 512 -c 2 -a 0 -i 71 -k AGT 
- -t 2.966080000 -s 21 -d -1 -p cbr -e 512 -c 2 -a 0 -i 71 -k AGT
h -t 2.966080000 -s 21 -d -1 -p cbr -e 512 -c 2 -a 0 -i 71 -k AGT
d -t 3.000000000 -s 21 -d -1 -p cbr -e 532 -c 2 -a 0 -i 0 -k RTR
d -t 3.000000000 -s 21 -d -1 -p cbr -e 532 -c 2 -a 0 -i 48 -k RTR
d -t 3.000000000 -s 21 -d -1 -p cbr -e 532 -c 2 -a 0 -i 49 -k RTR
d -t 3.000000000 -s 21 -d -1 -p cbr -e 532 -c 2 -a 0 -i 50 -k RTR
d -t 3.000000000 -s 21 -d -1 -p cbr -e 532 -c 2 -a 0 -i 51 -k RTR
d -t 3.000000000 -s 21 -d -1 -p cbr -e 532 -c 2 -a 0 -i 52 -k RTR
d -t 3.000000000 -s 21 -d -1 -p cbr -e 532 -c 2 -a 0 -i 53 -k RTR
d -t 3.000000000 -s 21 -d -1 -p cbr -e 532 -c 2 -a 0 -i 54 -k RTR
d -t 3.000000000 -s 21 -d -1 -p cbr -e 532 -c 2 -a 0 -i 55 -k RTR
d -t 3.000000000 -s 21 -d -1 -p cbr -e 532 -c 2 -a 0 -i 56 -k RTR
d -t 3.000000000 -s 21 -d -1 -p cbr -e 532 -c 2 -a 0 -i 57 -k RTR
d -t 3.000000000 -s 21 -d -1 -p cbr -e 532 -c 2 -a 0 -i 58 -k RTR
d -t 3.000000000 -s 21 -d -1 -p cbr -e 532 -c 2 -a 0 -i 59 -k RTR
d -t 3.000000000 -s 21 -d -1 -p cbr -e 532 -c 2 -a 0 -i 60 -k RTR
d -t 3.000000000 -s 21 -d -1 -p cbr -e 532 -c 2 -a 0 -i 61 -k RTR
d -t 3.000000000 -s 21 -d -1 -p cbr -e 532 -c 2 -a 0 -i 62 -k RTR
d -t 3.000000000 -s 21 -d -1 -p cbr -e 532 -c 2 -a 0 -i 63 -k RTR
d -t 3.000000000 -s 21 -d -1 -p cbr -e 532 -c 2 -a 0 -i 64 -k RTR
d -t 3.000000000 -s 21 -d -1 -p cbr -e 532 -c 2 -a 0 -i 65 -k RTR
d -t 3.000000000 -s 21 -d -1 -p cbr -e 532 -c 2 -a 0 -i 66 -k RTR
d -t 3.000000000 -s 21 -d -1 -p cbr -e 532 -c 2 -a 0 -i 67 -k RTR
d -t 3.000000000 -s 21 -d -1 -p cbr -e 532 -c 2 -a 0 -i 68 -k RTR
d -t 3.000000000 -s 21 -d -1 -p cbr -e 532 -c 2 -a 0 -i 69 -k RTR
d -t 3.000000000 -s 21 -d -1 -p cbr -e 532 -c 2 -a 0 -i 70 -k RTR
d -t 3.000000000 -s 21 -d -1 -p cbr -e 532 -c 2 -a 0 -i 71 -k RTR
+ -t 3.048000000 -s 21 -d -1 -p cbr -e 512 -c 2 -a 0 -i 72 -k AGT 
- -t 3.048000000 -s 21 -d -1 -p cbr -e 512 -c 2 -a 0 -i 72 -k AGT
h -t 3.048000000 -s 21 -d -1 -p cbr -e 512 -c 2 -a 0 -i 72 -k AGT
+ -t 3.048000000 -s 21 -d -1 -p DYMOUM -e 48 -c 2 -a 0 -i 73 -k RTR 
- -t 3.048000000 -s 21 -d -1 -p DYMOUM -e 48 -c 2 -a 0 -i 73 -k RTR
h -t 3.048000000 -s 21 -d -1 -p DYMOUM -e 48 -c 2 -a 0 -i 73 -k RTR
r -t 3.049268232 -s 22 -d -1 -p DYMOUM -e 48 -c 2 -a 0 -i 73 -k RTR
+ -t 3.049268232 -s 22 -d -1 -p DYMOUM -e 60 -c 2 -a 0 -i 74 -k RTR 
- -t 3.049268232 -s 22 -d -1 -p DYMOUM -e 60 -c 2 -a 0 -i 74 -k RTR
h -t 3.049268232 -s 22 -d -1 -p DYMOUM -e 60 -c 2 -a 0 -i 74 -k RTR
r -t 3.049268347 -s 23 -d -1 -p DYMOUM -e 48 -c 2 -a 0 -i 73 -k RTR