M 0.00000 0 (536.89, 996.70, 0.00), (536.89, 996.70), 0.00
s 0.000000000 _0_ AGT  --- 0 cbr 512 [0 0 0 0] ------- [0:0 31:0 32 0] [0] 0 0
s 0.000000000 _1_ AGT  --- 2 cbr 512 [0 0 0 0] ------- [1:0 75:0 32 0] [0] 0 0
s 0.000000000 _2_ AGT  --- 4 cbr 512 [0 0 0 0] ------- [2:0 28:0 32 0] [0] 0 0
s 0.000000000 _3_ AGT  --- 6 cbr 512 [0 0 0 0] ------- [3:0 51:0 32 0] [0] 0 0
s 0.000000000 _4_ AGT  --- 8 cbr 512 [0 0 0 0] ------- [4:0 15:0 32 0] [0] 0 0
r 0.029415769 _28_ AGT  --- 4 cbr 532 [13a 1c 2 800] ------- [2:0 28:0 31 28] [0] 1 0
M 0.10000 0 (536.89, 996.70, 0.00), (536.87, 996.69), 0.25
D 0.109988180 _73_ IFQ  ARP 362 DYMOUM 48 [0 0 49 800] ------- [73:255 84:255 1 84] [ RE 0 0 28 29 0 0 0 2 1 [0 0 1 -462653451 1001] ]
D 0.115997552 _51_ IFQ  ARP 208 DYMOUM 48 [0 0 33 800] ------- [51:255 76:255 1 76] [ RE 0 0 28 30 0 0 3 2 9 [0 0 0 51 2] ]
M 0.20000 0 (536.87, 996.69, 0.00), (536.82, 996.67), 0.49
s 0.200000000 _0_ AGT  --- 488 cbr 512 [0 0 0 0] ------- [0:0 31:0 32 0] [1] 0 0
s 0.200000000 _1_ AGT  --- 489 cbr 512 [0 0 0 0] ------- [1:0 75:0 32 0] [1] 0 0
s 0.200000000 _2_ AGT  --- 490 cbr 512 [0 0 0 0] ------- [2:0 28:0 32 0] [1] 0 0
s 0.200000000 _3_ AGT  --- 491 cbr 512 [0 0 0 0] ------- [3:0 51:0 32 0] [1] 0 0
s 0.200000000 _4_ AGT  --- 492 cbr 512 [0 0 0 0] ------- [4:0 15:0 32 0] [1] 0 0
r 0.205936000 _28_ AGT  --- 490 cbr 532 [13a 1c 2 800] ------- [2:0 28:0 31 28] [1] 1 0
M 0.30000 0 (536.82, 996.67, 0.00), (536.75, 996.64), 0.75
M 0.40000 0 (536.76, 996.64, 0.00), (536.66, 996.60), 0.98
s 0.400000000 _0_ AGT  --- 496 cbr 512 [0 0 0 0] ------- [0:0 31:0 32 0] [2] 0 0
s 0.400000000 _1_ AGT  --- 497 cbr 512 [0 0 0 0] ------- [1:0 75:0 32 0] [2] 0 0
s 0.400000000 _2_ AGT  --- 498 cbr 512 [0 0 0 0] ------- [2:0 28:0 32 0] [2] 0 0
s 0.400000000 _3_ AGT  --- 499 cbr 512 [0 0 0 0] ------- [3:0 51:0 32 0] [2] 0 0
s 0.400000000 _4_ AGT  --- 500 cbr 512 [0 0 0 0] ------- [4:0 15:0 32 0] [2] 0 0
r 0.405596000 _28_ AGT  --- 498 cbr 532 [13a 1c 2 800] ------- [2:0 28:0 31 28] [2] 1 0
M 0.50000 0 (536.67, 996.60, 0.00), (536.55, 996.55), 1.21
D 0.521745572 _49_ IFQ  ARP 465 DYMOUM 48 [0 0 31 800] ------- [49:255 93:255 1 93] [ RE 0 0 28 27 0 0 0 2 5 [0 0 3 31 3] ]
D 0.559679519 _75_ IFQ  ARP 199 DYMOUM 48 [0 0 4b 800] ------- [75:255 21:255 1 21] [ RE 0 0 28 30 0 0 1 2 3 [0 0 0 75 2] ]
M 0.60000 0 (536.56, 996.55, 0.00), (536.42, 996.50), 1.46
s 0.600000000 _0_ AGT  --- 726 cbr 512 [0 0 0 0] ------- [0:0 31:0 32 0] [3] 0 0
s 0.600000000 _1_ AGT  --- 727 cbr 512 [0 0 0 0] ------- [1:0 75:0 32 0] [3] 0 0
s 0.600000000 _2_ AGT  --- 728 cbr 512 [0 0 0 0] ------- [2:0 28:0 32 0] [3] 0 0
s 0.600000000 _3_ AGT  --- 729 cbr 512 [0 0 0 0] ------- [3:0 51:0 32 0] [3] 0 0
s 0.600000000 _4_ AGT  --- 730 cbr 512 [0 0 0 0] ------- [4:0 15:0 32 0] [3] 0 0
r 0.605916000 _28_ AGT  --- 728 cbr 532 [13a 1c 2 800] ------- [2:0 28:0 31 28] [3] 1 0
D 0.626613566 _76_ IFQ  ARP 732 DYMOUM 48 [0 0 4c 800] ------- [76:255 1:255 1 1] [ RE 0 0 28 28 0 0 1 3 3 [0 0 2 75 3] ]
M 0.70000 0 (536.42, 996.50, 0.00), (536.26, 996.43), 1.66
r 0.745245254 _31_ AGT  --- 0 cbr 532 [13a 1f f 800] ------- [0:0 31:0 27 31] [0] 5 0
r 0.751148319 _31_ AGT  --- 488 cbr 532 [13a 1f f 800] ------- [0:0 31:0 27 31] [1] 5 0
r 0.757231383 _31_ AGT  --- 726 cbr 532 [13a 1f f 800] ------- [0:0 31:0 27 31] [3] 5 0
r 0.763114448 _31_ AGT  --- 496 cbr 532 [13a 1f f 800] ------- [0:0 31:0 27 31] [2] 5 0
M 0.80000 0 (536.27, 996.43, 0.00), (536.09, 996.36), 1.90
s 0.800000000 _0_ AGT  --- 745 cbr 512 [0 0 0 0] ------- [0:0 31:0 32 0] [4] 0 0
s 0.800000000 _1_ AGT  --- 746 cbr 512 [0 0 0 0] ------- [1:0 75:0 32 0] [4] 0 0
s 0.800000000 _2_ AGT  --- 747 cbr 512 [0 0 0 0] ------- [2:0 28:0 32 0] [4] 0 0
s 0.800000000 _3_ AGT  --- 748 cbr 512 [0 0 0 0] ------- [3:0 51:0 32 0] [4] 0 0
s 0.800000000 _4_ AGT  --- 749 cbr 512 [0 0 0 0] ------- [4:0 15:0 32 0] [4] 0 0
r 0.805996000 _28_ AGT  --- 747 cbr 532 [13a 1c 2 800] ------- [2:0 28:0 31 28] [4] 1 0
r 0.830925539 _31_ AGT  --- 745 cbr 532 [13a 1f 4b 800] ------- [0:0 31:0 27 31] [4] 5 0
M 0.90000 0 (536.09, 996.36, 0.00), (535.90, 996.27), 2.10
M 1.00000 0 (535.90, 996.27, 0.00), (535.69, 996.19), 2.27
M 1.00000 1 (861.46, 1347.74, 0.00), (861.46, 1347.74), 0.00
s 1.000000000 _0_ AGT  --- 750 cbr 512 [0 0 0 0] ------- [0:0 31:0 32 0] [5] 0 0
s 1.000000000 _1_ AGT  --- 751 cbr 512 [0 0 0 0] ------- [1:0 75:0 32 0] [5] 0 0
s 1.000000000 _2_ AGT  --- 752 cbr 512 [0 0 0 0] ------- [2:0 28:0 32 0] [5] 0 0
s 1.000000000 _3_ AGT  --- 753 cbr 512 [0 0 0 0] ------- [3:0 51:0 32 0] [5] 0 0
s 1.000000000 _4_ AGT  --- 754 cbr 512 [0 0 0 0] ------- [4:0 15:0 32 0] [5] 0 0
r 1.005896000 _28_ AGT  --- 752 cbr 532 [13a 1c 2 800] ------- [2:0 28:0 31 28] [5] 1 0
r 1.029545542 _31_ AGT  --- 750 cbr 532 [13a 1f 4b 800] ------- [0:0 31:0 27 31] [5] 5 0
M 1.10000 0 (535.69, 996.19, 0.00), (535.45, 996.09), 2.53
M 1.10000 1 (861.46, 1347.74, 0.00), (861.44, 1347.76), 0.25
M 1.20000 0 (535.46, 996.09, 0.00), (535.20, 995.98), 2.73
M 1.20000 1 (861.44, 1347.76, 0.00), (861.40, 1347.78), 0.50
s 1.200000000 _0_ AGT  --- 755 cbr 512 [0 0 0 0] ------- [0:0 31:0 32 0] [6] 0 0
s 1.200000000 _1_ AGT  --- 756 cbr 512 [0 0 0 0] ------- [1:0 75:0 32 0] [6] 0 0
s 1.200000000 _2_ AGT  --- 757 cbr 512 [0 0 0 0] ------- [2:0 28:0 32 0] [6] 0 0
s 1.200000000 _3_ AGT  --- 758 cbr 512 [0 0 0 0] ------- [3:0 51:0 32 0] [6] 0 0
s 1.200000000 _4_ AGT  --- 759 cbr 512 [0 0 0 0] ------- [4:0 15:0 32 0] [6] 0 0
r 1.205556000 _28_ AGT  --- 757 cbr 532 [13a 1c 2 800] ------- [2:0 28:0 31 28] [6] 1 0
r 1.230085546 _31_ AGT  --- 755 cbr 532 [13a 1f 4b 800] ------- [0:0 31:0 27 31] [6] 5 0
M 1.30000 0 (535.21, 995.98, 0.00), (534.94, 995.86), 2.91
M 1.30000 1 (861.40, 1347.78, 0.00), (861.34, 1347.82), 0.75
M 1.40000 0 (534.94, 995.86, 0.00), (534.64, 995.74), 3.17
M 1.40000 1 (861.34, 1347.82, 0.00), (861.26, 1347.87), 0.97
s 1.400000000 _0_ AGT  --- 760 cbr 512 [0 0 0 0] ------- [0:0 31:0 32 0] [7] 0 0
s 1.400000000 _1_ AGT  --- 761 cbr 512 [0 0 0 0] ------- [1:0 75:0 32 0] [7] 0 0
s 1.400000000 _2_ AGT  --- 762 cbr 512 [0 0 0 0] ------- [2:0 28:0 32 0] [7] 0 0
s 1.400000000 _3_ AGT  --- 763 cbr 512 [0 0 0 0] ------- [3:0 51:0 32 0] [7] 0 0
s 1.400000000 _4_ AGT  --- 764 cbr 512 [0 0 0 0] ------- [4:0 15:0 32 0] [7] 0 0
r 1.405496000 _28_ AGT  --- 762 cbr 532 [13a 1c 2 800] ------- [2:0 28:0 31 28] [7] 1 0
r 1.429845551 _31_ AGT  --- 760 cbr 532 [13a 1f 4b 800] ------- [0:0 31:0 27 31] [7] 5 0
M 1.50000 0 (534.65, 995.74, 0.00), (534.33, 995.61), 3.38
M 1.50000 1 (861.26, 1347.87, 0.00), (861.16, 1347.94), 1.18
D 1.551942492 _57_ IFQ  ARP 856 DYMOUM 48 [0 0 39 800] ------- [57:255 1:255 1 1] [ RE 0 0 28 30 0 0 51 3 9 [0 0 0 3 4] ]
s 1.600000000 _0_ AGT  --- 1007 cbr 512 [0 0 0 0] ------- [0:0 31:0 32 0] [8] 0 0
s 1.600000000 _1_ AGT  --- 1008 cbr 512 [0 0 0 0] ------- [1:0 75:0 32 0] [8] 0 0
s 1.600000000 _2_ AGT  --- 1009 cbr 512 [0 0 0 0] ------- [2:0 28:0 32 0] [8] 0 0
s 1.600000000 _3_ AGT  --- 1010 cbr 512 [0 0 0 0] ------- [3:0 51:0 32 0] [8] 0 0
s 1.600000000 _4_ AGT  --- 1011 cbr 512 [0 0 0 0] ------- [4:0 15:0 32 0] [8] 0 0
M 1.60000 0 (534.34, 995.61, 0.00), (534.00, 995.46), 3.64
M 1.60000 1 (861.16, 1347.94, 0.00), (861.04, 1348.01), 1.41
r 1.605676000 _28_ AGT  --- 1009 cbr 532 [13a 1c 2 800] ------- [2:0 28:0 31 28] [8] 1 0
D 1.635559864 _48_ IFQ  ARP 989 DYMOUM 48 [0 0 30 800] ------- [48:255 90:255 1 90] [ RE 0 0 28 29 0 0 3 4 9 [0 0 4 51 3] ]
r 1.687398241 _31_ AGT  --- 1007 cbr 532 [13a 1f 4b 800] ------- [0:0 31:0 27 31] [8] 5 0
D 1.690274256 _48_ IFQ  ARP 1013 DYMOUM 48 [0 0 30 800] ------- [48:255 90:255 1 90] [ RE 0 0 28 27 0 0 3 4 8 [0 0 3 51 4] ]
M 1.70000 0 (534.01, 995.46, 0.00), (533.64, 995.31), 3.86
M 1.70000 1 (861.04, 1348.01, 0.00), (860.90, 1348.10), 1.61
D 1.715998840 _59_ RTR  CBK 499 cbr 532 [13a 55 3b 800] ------- [3:0 51:0 30 85] [2] 1 0
r 1.719006463 _75_ AGT  --- 2 cbr 532 [13a 4b 4e 800] ------- [1:0 75:0 29 75] [0] 3 0
r 1.756603825 _75_ AGT  --- 489 cbr 532 [13a 4b 4e 800] ------- [1:0 75:0 29 75] [1] 3 0
D 1.780646792 _59_ RTR  CBK 729 cbr 532 [13a 55 3b 800] ------- [3:0 51:0 30 85] [3] 1 0
r 1.788391109 _75_ AGT  --- 497 cbr 532 [13a 4b 4e 800] ------- [1:0 75:0 29 75] [2] 3 0
s 1.800000000 _0_ AGT  --- 1024 cbr 512 [0 0 0 0] ------- [0:0 31:0 32 0] [9] 0 0
s 1.800000000 _1_ AGT  --- 1025 cbr 512 [0 0 0 0] ------- [1:0 75:0 32 0] [9] 0 0
s 1.800000000 _2_ AGT  --- 1026 cbr 512 [0 0 0 0] ------- [2:0 28:0 32 0] [9] 0 0
s 1.800000000 _3_ AGT  --- 1027 cbr 512 [0 0 0 0] ------- [3:0 51:0 32 0] [9] 0 0
s 1.800000000 _4_ AGT  --- 1028 cbr 512 [0 0 0 0] ------- [4:0 15:0 32 0] [9] 0 0
M 1.80000 0 (533.65, 995.31, 0.00), (533.28, 995.16), 4.00
M 1.80000 1 (860.91, 1348.10, 0.00), (860.75, 1348.19), 1.80
r 1.805716000 _28_ AGT  --- 1026 cbr 532 [13a 1c 2 800] ------- [2:0 28:0 31 28] [9] 1 0
r 1.806307962 _75_ AGT  --- 727 cbr 532 [13a 4b 4e 800] ------- [1:0 75:0 29 75] [3] 3 0
D 1.808019454 _59_ RTR NRTE 1027 cbr 532 [13a 3b 3 800] ------- [3:0 51:0 30 59] [9] 1 0
D 1.824128454 _59_ RTR  CBK 748 cbr 532 [13a 55 3b 800] ------- [3:0 51:0 30 85] [4] 1 0
r 1.830087081 _75_ AGT  --- 746 cbr 532 [13a 4b 4e 800] ------- [1:0 75:0 29 75] [4] 3 0
r 1.847923935 _75_ AGT  --- 1008 cbr 532 [13a 4b 4e 800] ------- [1:0 75:0 29 75] [8] 3 0
D 1.854557778 _59_ RTR  CBK 753 cbr 532 [13a 55 3b 800] ------- [3:0 51:0 30 85] [5] 1 0
r 1.878977379 _75_ AGT  --- 751 cbr 532 [13a 4b 4e 800] ------- [1:0 75:0 29 75] [5] 3 0
D 1.893848330 _59_ RTR  CBK 758 cbr 532 [13a 55 3b 800] ------- [3:0 51:0 30 85] [6] 1 0
r 1.896981386 _75_ AGT  --- 756 cbr 532 [13a 4b 4e 800] ------- [1:0 75:0 29 75] [6] 3 0
M 1.90000 0 (533.28, 995.16, 0.00), (532.89, 994.99), 4.14
M 1.90000 1 (860.75, 1348.19, 0.00), (860.58, 1348.30), 2.02
r 1.916969651 _51_ AGT  --- 6 cbr 532 [13a 33 4c 800] ------- [3:0 51:0 25 51] [0] 7 0
D 1.928188330 _59_ RTR  CBK 763 cbr 532 [13a 55 3b 800] ------- [3:0 51:0 30 85] [7] 1 0
r 1.928974949 _75_ AGT  --- 761 cbr 532 [13a 4b 4e 800] ------- [1:0 75:0 29 75] [7] 3 0
r 1.954116150 _31_ AGT  --- 1024 cbr 532 [13a 1f 4b 800] ------- [0:0 31:0 27 31] [9] 5 0
s 2.000000000 _0_ AGT  --- 1034 cbr 512 [0 0 0 0] ------- [0:0 31:0 32 0] [10] 0 0
s 2.000000000 _1_ AGT  --- 1035 cbr 512 [0 0 0 0] ------- [1:0 75:0 32 0] [10] 0 0
s 2.000000000 _2_ AGT  --- 1036 cbr 512 [0 0 0 0] ------- [2:0 28:0 32 0] [10] 0 0
s 2.000000000 _3_ AGT  --- 1037 cbr 512 [0 0 0 0] ------- [3:0 51:0 32 0] [10] 0 0
s 2.000000000 _4_ AGT  --- 1039 cbr 512 [0 0 0 0] ------- [4:0 15:0 32 0] [10] 0 0
M 2.00000 0 (532.90, 994.99, 0.00), (532.50, 994.82), 4.33
M 2.00000 1 (860.58, 1348.30, 0.00), (860.39, 1348.42), 2.25
M 2.00000 2 (1006.70, 2177.57, 0.00), (1006.70, 2177.57), 0.00
r 2.004006968 _51_ AGT  --- 491 cbr 532 [13a 33 4c 800] ------- [3:0 51:0 25 51] [1] 7 0
r 2.005576000 _28_ AGT  --- 1036 cbr 532 [13a 1c 2 800] ------- [2:0 28:0 31 28] [10] 1 0
r 2.021954371 _75_ AGT  --- 1025 cbr 532 [13a 4b 4e 800] ------- [1:0 75:0 29 75] [9] 3 0
r 2.033829627 _51_ AGT  --- 1010 cbr 532 [13a 33 4c 800] ------- [3:0 51:0 25 51] [8] 7 0
r 2.057933469 _31_ AGT  --- 1034 cbr 532 [13a 1f 4b 800] ------- [0:0 31:0 27 31] [10] 5 0
r 2.064301019 _75_ AGT  --- 1035 cbr 532 [13a 4b 4e 800] ------- [1:0 75:0 29 75] [10] 3 0
M 2.10000 0 (532.50, 994.82, 0.00), (532.08, 994.65), 4.55
M 2.10000 1 (860.39, 1348.42, 0.00), (860.18, 1348.55), 2.41
M 2.10000 2 (1006.70, 2177.57, 0.00), (1006.69, 2177.55), 0.26
s 2.200000000 _0_ AGT  --- 1048 cbr 512 [0 0 0 0] ------- [0:0 31:0 32 0] [11] 0 0
s 2.200000000 _1_ AGT  --- 1049 cbr 512 [0 0 0 0] ------- [1:0 75:0 32 0] [11] 0 0
s 2.200000000 _2_ AGT  --- 1050 cbr 512 [0 0 0 0] ------- [2:0 28:0 32 0] [11] 0 0
s 2.200000000 _3_ AGT  --- 1051 cbr 512 [0 0 0 0] ------- [3:0 51:0 32 0] [11] 0 0
s 2.200000000 _4_ AGT  --- 1052 cbr 512 [0 0 0 0] ------- [4:0 15:0 32 0] [11] 0 0
M 2.20000 0 (532.08, 994.65, 0.00), (531.65, 994.46), 4.69
M 2.20000 1 (860.19, 1348.55, 0.00), (859.95, 1348.69), 2.67
M 2.20000 2 (1006.69, 2177.55, 0.00), (1006.67, 2177.51), 0.52
r 2.205976000 _28_ AGT  --- 1050 cbr 532 [13a 1c 2 800] ------- [2:0 28:0 31 28] [11] 1 0
r 2.229165578 _31_ AGT  --- 1048 cbr 532 [13a 1f 4b 800] ------- [0:0 31:0 27 31] [11] 5 0
r 2.247781125 _75_ AGT  --- 1049 cbr 532 [13a 4b 4e 800] ------- [1:0 75:0 29 75] [11] 3 0
M 2.30000 0 (531.65, 994.46, 0.00), (531.20, 994.27), 4.90
M 2.30000 1 (859.96, 1348.68, 0.00), (859.71, 1348.84), 2.91
M 2.30000 2 (1006.67, 2177.51, 0.00), (1006.63, 2177.44), 0.75
M 2.40000 0 (531.20, 994.27, 0.00), (530.73, 994.07), 5.11
M 2.40000 1 (859.71, 1348.84, 0.00), (859.45, 1349.00), 3.05
M 2.40000 2 (1006.63, 2177.44, 0.00), (1006.58, 2177.35), 1.00
s 2.400000000 _0_ AGT  --- 1053 cbr 512 [0 0 0 0] ------- [0:0 31:0 32 0] [12] 0 0
s 2.400000000 _1_ AGT  --- 1054 cbr 512 [0 0 0 0] ------- [1:0 75:0 32 0] [12] 0 0
s 2.400000000 _2_ AGT  --- 1055 cbr 512 [0 0 0 0] ------- [2:0 28:0 32 0] [12] 0 0
s 2.400000000 _3_ AGT  --- 1056 cbr 512 [0 0 0 0] ------- [3:0 51:0 32 0] [12] 0 0
s 2.400000000 _4_ AGT  --- 1057 cbr 512 [0 0 0 0] ------- [4:0 15:0 32 0] [12] 0 0
r 2.405756001 _28_ AGT  --- 1055 cbr 532 [13a 1c 2 800] ------- [2:0 28:0 31 28] [12] 1 0
r 2.417442316 _75_ AGT  --- 1054 cbr 532 [13a 4b 4e 800] ------- [1:0 75:0 29 75] [12] 3 0
r 2.447702677 _31_ AGT  --- 1053 cbr 532 [13a 1f 4b 800] ------- [0:0 31:0 27 31] [12] 5 0
M 2.50000 0 (530.73, 994.07, 0.00), (530.23, 993.86), 5.34
M 2.50000 1 (859.45, 1349.00, 0.00), (859.17, 1349.18), 3.28
M 2.50000 2 (1006.58, 2177.36, 0.00), (1006.53, 2177.24), 1.25
M 2.60000 0 (530.24, 993.86, 0.00), (529.72, 993.64), 5.57
M 2.60000 1 (859.18, 1349.18, 0.00), (858.88, 1349.36), 3.44
M 2.60000 2 (1006.53, 2177.24, 0.00), (1006.46, 2177.11), 1.46
s 2.600000000 _0_ AGT  --- 1189 cbr 512 [0 0 0 0] ------- [0:0 31:0 32 0] [13] 0 0
s 2.600000000 _1_ AGT  --- 1190 cbr 512 [0 0 0 0] ------- [1:0 75:0 32 0] [13] 0 0
s 2.600000000 _2_ AGT  --- 1191 cbr 512 [0 0 0 0] ------- [2:0 28:0 32 0] [13] 0 0
s 2.600000000 _3_ AGT  --- 1192 cbr 512 [0 0 0 0] ------- [3:0 51:0 32 0] [13] 0 0
s 2.600000000 _4_ AGT  --- 1193 cbr 512 [0 0 0 0] ------- [4:0 15:0 32 0] [13] 0 0
r 2.605936004 _28_ AGT  --- 1191 cbr 532 [13a 1c 2 800] ------- [2:0 28:0 31 28] [13] 1 0
r 2.630100268 _31_ AGT  --- 1189 cbr 532 [13a 1f 4b 800] ------- [0:0 31:0 27 31] [13] 5 0
r 2.658681432 _75_ AGT  --- 1190 cbr 532 [13a 4b 4e 800] ------- [1:0 75:0 29 75] [13] 3 0
D 2.661497324 _30_ IFQ  ARP 1184 DYMOUM 48 [0 0 1e 800] ------- [30:255 8:255 1 8] [ RE 0 0 28 27 0 0 3 6 7 [0 0 4 51 4] ]
D 2.692299854 _12_ RTR  CBK 1056 cbr 532 [13a 55 c 800] ------- [3:0 51:0 30 85] [12] 1 0
r 2.698408408 _51_ AGT  --- 1037 cbr 532 [13a 33 4c 800] ------- [3:0 51:0 25 51] [10] 7 0
M 2.70000 0 (529.73, 993.64, 0.00), (529.19, 993.41), 5.74
M 2.70000 1 (858.88, 1349.36, 0.00), (858.57, 1349.55), 3.61
M 2.70000 2 (1006.46, 2177.12, 0.00), (1006.38, 2176.96), 1.72
r 2.710838502 _51_ AGT  --- 1051 cbr 532 [13a 33 4c 800] ------- [3:0 51:0 25 51] [11] 7 0
r 2.751263330 _51_ AGT  --- 1192 cbr 532 [13a 33 4c 800] ------- [3:0 51:0 25 51] [13] 7 0
D 2.770624026 _8_ IFQ  ARP 1195 DYMOUM 48 [0 0 8 800] ------- [8:255 10:255 1 10] [ RE 0 0 28 29 0 0 3 6 6 [0 0 4 51 4] ]
M 2.80000 0 (529.20, 993.41, 0.00), (528.65, 993.18), 5.91
M 2.80000 1 (858.58, 1349.55, 0.00), (858.26, 1349.75), 3.74
M 2.80000 2 (1006.38, 2176.96, 0.00), (1006.28, 2176.79), 1.92
s 2.800000000 _0_ AGT  --- 1198 cbr 512 [0 0 0 0] ------- [0:0 31:0 32 0] [14] 0 0
s 2.800000000 _1_ AGT  --- 1199 cbr 512 [0 0 0 0] ------- [1:0 75:0 32 0] [14] 0 0
s 2.800000000 _2_ AGT  --- 1200 cbr 512 [0 0 0 0] ------- [2:0 28:0 32 0] [14] 0 0
s 2.800000000 _3_ AGT  --- 1201 cbr 512 [0 0 0 0] ------- [3:0 51:0 32 0] [14] 0 0
s 2.800000000 _4_ AGT  --- 1202 cbr 512 [0 0 0 0] ------- [4:0 15:0 32 0] [14] 0 0
D 2.805617739 _12_ RTR NRTE 1201 cbr 532 [13a c 3 800] ------- [3:0 51:0 30 12] [14] 1 0
r 2.805796007 _28_ AGT  --- 1200 cbr 532 [13a 1c 2 800] ------- [2:0 28:0 31 28] [14] 1 0
r 2.829725605 _31_ AGT  --- 1198 cbr 532 [13a 1f 4b 800] ------- [0:0 31:0 27 31] [14] 5 0
r 2.848881170 _75_ AGT  --- 1199 cbr 532 [13a 4b 4e 800] ------- [1:0 75:0 29 75] [14] 3 0
M 2.90000 0 (528.66, 993.18, 0.00), (528.09, 992.94), 6.13
M 2.90000 1 (858.26, 1349.75, 0.00), (857.92, 1349.96), 3.94
M 2.90000 2 (1006.28, 2176.80, 0.00), (1006.19, 2176.61), 2.07
M 3.00000 0 (528.09, 992.94, 0.00), (527.50, 992.69), 6.37
M 3.00000 1 (857.93, 1349.96, 0.00), (857.58, 1350.17), 4.08
M 3.00000 2 (1006.19, 2176.61, 0.00), (1006.08, 2176.41), 2.26
s 3.000000000 _0_ AGT  --- 1205 cbr 512 [0 0 0 0] ------- [0:0 31:0 32 0] [15] 0 0
s 3.000000000 _1_ AGT  --- 1206 cbr 512 [0 0 0 0] ------- [1:0 75:0 32 0] [15] 0 0
s 3.000000000 _2_ AGT  --- 1207 cbr 512 [0 0 0 0] ------- [2:0 28:0 32 0] [15] 0 0
s 3.000000000 _3_ AGT  --- 1208 cbr 512 [0 0 0 0] ------- [3:0 51:0 32 0] [15] 0 0
s 3.000000000 _4_ AGT  --- 1210 cbr 512 [0 0 0 0] ------- [4:0 15:0 32 0] [15] 0 0
r 3.005496011 _28_ AGT  --- 1207 cbr 532 [13a 1c 2 800] ------- [2:0 28:0 31 28] [15] 1 0
r 3.017462330 _75_ AGT  --- 1206 cbr 532 [13a 4b 4e 800] ------- [1:0 75:0 29 75] [15] 3 0
r 3.055762248 _31_ AGT  --- 1205 cbr 532 [13a 1f 4b 800] ------- [0:0 31:0 27 31] [15] 5 0
r 3.091068455 _51_ AGT  --- 1208 cbr 532 [13a 33 4c 800] ------- [3:0 51:0 25 51] [15] 7 0
M 3.10000 0 (527.51, 992.69, 0.00), (526.90, 992.43), 6.55
M 3.10000 1 (857.58, 1350.17, 0.00), (857.21, 1350.40), 4.32
M 3.10000 2 (1006.08, 2176.42, 0.00), (1005.96, 2176.19), 2.50
M 3.20000 0 (526.91, 992.43, 0.00), (526.27, 992.17), 6.77
M 3.20000 1 (857.21, 1350.40, 0.00), (856.83, 1350.64), 4.51
M 3.20000 2 (1005.96, 2176.20, 0.00), (1005.83, 2175.95), 2.76
s 3.200000000 _0_ AGT  --- 1226 cbr 512 [0 0 0 0] ------- [0:0 31:0 32 0] [16] 0 0
s 3.200000000 _1_ AGT  --- 1227 cbr 512 [0 0 0 0] ------- [1:0 75:0 32 0] [16] 0 0
s 3.200000000 _2_ AGT  --- 1228 cbr 512 [0 0 0 0] ------- [2:0 28:0 32 0] [16] 0 0
s 3.200000000 _3_ AGT  --- 1229 cbr 512 [0 0 0 0] ------- [3:0 51:0 32 0] [16] 0 0
s 3.200000000 _4_ AGT  --- 1230 cbr 512 [0 0 0 0] ------- [4:0 15:0 32 0] [16] 0 0
r 3.205856016 _28_ AGT  --- 1228 cbr 532 [13a 1c 2 800] ------- [2:0 28:0 31 28] [16] 1 0
r 3.236160056 _31_ AGT  --- 1226 cbr 532 [13a 1f 4b 800] ------- [0:0 31:0 27 31] [16] 5 0
r 3.255888293 _75_ AGT  --- 1227 cbr 532 [13a 4b 4e 800] ------- [1:0 75:0 29 75] [16] 3 0
r 3.287509853 _51_ AGT  --- 1229 cbr 532 [13a 33 4c 800] ------- [3:0 51:0 25 51] [16] 7 0
M 3.30000 0 (526.28, 992.17, 0.00), (525.63, 991.89), 7.02
M 3.30000 1 (856.83, 1350.64, 0.00), (856.42, 1350.89), 4.74
M 3.30000 2 (1005.83, 2175.95, 0.00), (1005.70, 2175.69), 2.90
M 3.40000 0 (525.64, 991.89, 0.00), (524.96, 991.61), 7.24
M 3.40000 1 (856.43, 1350.89, 0.00), (856.00, 1351.15), 4.96
M 3.40000 2 (1005.70, 2175.69, 0.00), (1005.55, 2175.42), 3.03
s 3.400000000 _0_ AGT  --- 1231 cbr 512 [0 0 0 0] ------- [0:0 31:0 32 0] [17] 0 0
s 3.400000000 _1_ AGT  --- 1232 cbr 512 [0 0 0 0] ------- [1:0 75:0 32 0] [17] 0 0
s 3.400000000 _2_ AGT  --- 1233 cbr 512 [0 0 0 0] ------- [2:0 28:0 32 0] [17] 0 0
s 3.400000000 _3_ AGT  --- 1234 cbr 512 [0 0 0 0] ------- [3:0 51:0 32 0] [17] 0 0
s 3.400000000 _4_ AGT  --- 1235 cbr 512 [0 0 0 0] ------- [4:0 15:0 32 0] [17] 0 0
r 3.405856021 _28_ AGT  --- 1233 cbr 532 [13a 1c 2 800] ------- [2:0 28:0 31 28] [17] 1 0
r 3.417582342 _75_ AGT  --- 1232 cbr 532 [13a 4b 4e 800] ------- [1:0 75:0 29 75] [17] 3 0
r 3.467981134 _51_ AGT  --- 1234 cbr 532 [13a 33 4c 800] ------- [3:0 51:0 25 51] [17] 7 0
r 3.492119107 _31_ AGT  --- 1231 cbr 532 [13a 1f 4b 800] ------- [0:0 31:0 27 31] [17] 5 0
M 3.50000 0 (524.97, 991.61, 0.00), (524.28, 991.32), 7.43
M 3.50000 1 (856.01, 1351.15, 0.00), (855.56, 1351.43), 5.19
M 3.50000 2 (1005.55, 2175.43, 0.00), (1005.40, 2175.14), 3.28
D 3.577407040 _98_ IFQ  ARP 1373 DYMOUM 48 [0 0 62 800] ------- [98:255 1:255 1 1] [ RE 0 0 28 28 0 0 4 5 9 [0 0 4 15 2] ]
M 3.60000 0 (524.29, 991.32, 0.00), (523.57, 991.02), 7.68
M 3.60000 1 (855.57, 1351.43, 0.00), (855.10, 1351.72), 5.44
M 3.60000 2 (1005.40, 2175.14, 0.00), (1005.23, 2174.83), 3.51
s 3.600000000 _0_ AGT  --- 1380 cbr 512 [0 0 0 0] ------- [0:0 31:0 32 0] [18] 0 0
s 3.600000000 _1_ AGT  --- 1381 cbr 512 [0 0 0 0] ------- [1:0 75:0 32 0] [18] 0 0
s 3.600000000 _2_ AGT  --- 1382 cbr 512 [0 0 0 0] ------- [2:0 28:0 32 0] [18] 0 0
s 3.600000000 _3_ AGT  --- 1383 cbr 512 [0 0 0 0] ------- [3:0 51:0 32 0] [18] 0 0
s 3.600000000 _4_ AGT  --- 1384 cbr 512 [0 0 0 0] ------- [4:0 15:0 32 0] [18] 0 0
r 3.605736028 _28_ AGT  --- 1382 cbr 532 [13a 1c 2 800] ------- [2:0 28:0 31 28] [18] 1 0
D 3.638706706 _98_ IFQ  ARP 1374 DYMOUM 48 [0 0 62 800] ------- [98:255 1:255 1 1] [ RE 0 0 28 28 0 0 4 5 8 [0 0 3 15 2] ]
r 3.689917830 _75_ AGT  --- 1381 cbr 532 [13a 4b 4e 800] ------- [1:0 75:0 29 75] [18] 3 0
r 3.696199390 _31_ AGT  --- 1380 cbr 532 [13a 1f 4b 800] ------- [0:0 31:0 27 31] [18] 5 0
M 3.70000 0 (523.58, 991.02, 0.00), (522.85, 990.71), 7.90
M 3.70000 1 (855.11, 1351.72, 0.00), (854.62, 1352.02), 5.66
M 3.70000 2 (1005.23, 2174.83, 0.00), (1005.06, 2174.50), 3.68
r 3.732210198 _51_ AGT  --- 1383 cbr 532 [13a 33 4c 800] ------- [3:0 51:0 25 51] [18] 7 0
r 3.758553936 _15_ AGT  --- 8 cbr 532 [13a f 37 800] ------- [4:0 15:0 24 15] [0] 8 0
r 3.793271067 _15_ AGT  --- 492 cbr 532 [13a f 37 800] ------- [4:0 15:0 24 15] [1] 8 0
M 3.80000 0 (522.85, 990.71, 0.00), (522.10, 990.39), 8.07
M 3.80000 1 (854.63, 1352.02, 0.00), (854.12, 1352.33), 5.87
M 3.80000 2 (1005.06, 2174.51, 0.00), (1004.87, 2174.16), 3.91
s 3.800000000 _0_ AGT  --- 1393 cbr 512 [0 0 0 0] ------- [0:0 31:0 32 0] [19] 0 0
s 3.800000000 _1_ AGT  --- 1394 cbr 512 [0 0 0 0] ------- [1:0 75:0 32 0] [19] 0 0
s 3.800000000 _2_ AGT  --- 1395 cbr 512 [0 0 0 0] ------- [2:0 28:0 32 0] [19] 0 0
s 3.800000000 _3_ AGT  --- 1396 cbr 512 [0 0 0 0] ------- [3:0 51:0 32 0] [19] 0 0
s 3.800000000 _4_ AGT  --- 1397 cbr 512 [0 0 0 0] ------- [4:0 15:0 32 0] [19] 0 0
r 3.805636035 _28_ AGT  --- 1395 cbr 532 [13a 1c 2 800] ------- [2:0 28:0 31 28] [19] 1 0
r 3.818524109 _15_ AGT  --- 500 cbr 532 [13a f 37 800] ------- [4:0 15:0 24 15] [2] 8 0
r 3.851293639 _75_ AGT  --- 1394 cbr 532 [13a 4b 4e 800] ------- [1:0 75:0 29 75] [19] 3 0
r 3.870711054 _15_ AGT  --- 730 cbr 532 [13a f 37 800] ------- [4:0 15:0 24 15] [3] 8 0
M 3.90000 0 (522.11, 990.39, 0.00), (521.34, 990.06), 8.28
M 3.90000 1 (854.13, 1352.32, 0.00), (853.61, 1352.65), 6.06
M 3.90000 2 (1004.87, 2174.16, 0.00), (1004.68, 2173.80), 4.09
r 3.908567306 _51_ AGT  --- 1396 cbr 532 [13a 33 4c 800] ------- [3:0 51:0 25 51] [19] 7 0
r 3.948125279 _31_ AGT  --- 1393 cbr 532 [13a 1f 4b 800] ------- [0:0 31:0 27 31] [19] 5 0
M 4.00000 0 (521.35, 990.06, 0.00), (520.56, 989.73), 8.46
M 4.00000 1 (853.62, 1352.65, 0.00), (853.08, 1352.98), 6.27
M 4.00000 2 (1004.68, 2173.80, 0.00), (1004.48, 2173.42), 4.24
M 4.00000 3 (1629.70, 1474.46, 0.00), (1629.70, 1474.46), 0.00
s 4.000000000 _0_ AGT  --- 1398 cbr 512 [0 0 0 0] ------- [0:0 31:0 32 0] [20] 0 0
s 4.000000000 _1_ AGT  --- 1399 cbr 512 [0 0 0 0] ------- [1:0 75:0 32 0] [20] 0 0
s 4.000000000 _2_ AGT  --- 1400 cbr 512 [0 0 0 0] ------- [2:0 28:0 32 0] [20] 0 0
s 4.000000000 _3_ AGT  --- 1401 cbr 512 [0 0 0 0] ------- [3:0 51:0 32 0] [20] 0 0
s 4.000000000 _4_ AGT  --- 1402 cbr 512 [0 0 0 0] ------- [4:0 15:0 32 0] [20] 0 0
r 4.013704656 _28_ AGT  --- 1400 cbr 532 [13a 1c 2 800] ------- [2:0 28:0 31 28] [20] 1 0
r 4.033439567 _31_ AGT  --- 1398 cbr 532 [13a 1f 4b 800] ------- [0:0 31:0 27 31] [20] 5 0
r 4.077698999 _75_ AGT  --- 1399 cbr 532 [13a 4b 4e 800] ------- [1:0 75:0 29 75] [20] 3 0
r 4.096545334 _51_ AGT  --- 1401 cbr 532 [13a 33 4c 800] ------- [3:0 51:0 25 51] [20] 7 0
M 4.10000 0 (520.57, 989.73, 0.00), (519.76, 989.39), 8.72
M 4.10000 1 (853.08, 1352.98, 0.00), (852.53, 1353.33), 6.49
M 4.10000 2 (1004.48, 2173.43, 0.00), (1004.27, 2173.04), 4.38
M 4.10000 3 (1629.70, 1474.46, 0.00), (1629.67, 1474.47), 0.26
r 4.126885095 _15_ AGT  --- 749 cbr 532 [13a f 37 800] ------- [4:0 15:0 24 15] [4] 8 0
r 4.181048391 _15_ AGT  --- 754 cbr 532 [13a f 37 800] ------- [4:0 15:0 24 15] [5] 8 0
M 4.20000 0 (519.77, 989.39, 0.00), (518.94, 989.04), 8.90
M 4.20000 1 (852.54, 1353.33, 0.00), (851.97, 1353.68), 6.63
M 4.20000 2 (1004.27, 2173.04, 0.00), (1004.06, 2172.64), 4.52
M 4.20000 3 (1629.68, 1474.47, 0.00), (1629.63, 1474.50), 0.51
s 4.200000000 _0_ AGT  --- 1403 cbr 512 [0 0 0 0] ------- [0:0 31:0 32 0] [21] 0 0
s 4.200000000 _1_ AGT  --- 1404 cbr 512 [0 0 0 0] ------- [1:0 75:0 32 0] [21] 0 0
s 4.200000000 _2_ AGT  --- 1405 cbr 512 [0 0 0 0] ------- [2:0 28:0 32 0] [21] 0 0
s 4.200000000 _3_ AGT  --- 1406 cbr 512 [0 0 0 0] ------- [3:0 51:0 32 0] [21] 0 0
s 4.200000000 _4_ AGT  --- 1407 cbr 512 [0 0 0 0] ------- [4:0 15:0 32 0] [21] 0 0
r 4.214348785 _15_ AGT  --- 759 cbr 532 [13a f 37 800] ------- [4:0 15:0 24 15] [6] 8 0
r 4.226421338 _28_ AGT  --- 1405 cbr 532 [13a 1c 2 800] ------- [2:0 28:0 31 28] [21] 1 0
D 4.245176839 _95_ RTR  CBK 1011 cbr 532 [13a 2b 5f 800] ------- [4:0 15:0 29 43] [8] 2 0
r 4.266635417 _31_ AGT  --- 1403 cbr 532 [13a 1f 4b 800] ------- [0:0 31:0 27 31] [21] 5 0
M 4.30000 0 (518.95, 989.04, 0.00), (518.11, 988.68), 9.07
M 4.30000 1 (851.97, 1353.68, 0.00), (851.39, 1354.04), 6.83
M 4.30000 2 (1004.06, 2172.64, 0.00), (1003.84, 2172.22), 4.73
M 4.30000 3 (1629.63, 1474.50, 0.00), (1629.56, 1474.53), 0.75
r 4.300182349 _75_ AGT  --- 1404 cbr 532 [13a 4b 4e 800] ------- [1:0 75:0 29 75] [21] 3 0
D 4.356757215 _55_ RTR  CBK 764 cbr 532 [13a f 37 800] ------- [4:0 15:0 24 15] [7] 7 0
r 4.379940687 _51_ AGT  --- 1406 cbr 532 [13a 33 4c 800] ------- [3:0 51:0 25 51] [21] 7 0
D 4.386247360 _55_ RTR NRTE 1028 cbr 532 [13a 37 4e 800] ------- [4:0 15:0 24 55] [9] 7 0
M 4.40000 0 (518.12, 988.68, 0.00), (517.26, 988.32), 9.20
M 4.40000 1 (851.39, 1354.04, 0.00), (850.79, 1354.41), 7.05
M 4.40000 2 (1003.84, 2172.22, 0.00), (1003.61, 2171.79), 4.91
M 4.40000 3 (1629.56, 1474.53, 0.00), (1629.48, 1474.58), 0.97
s 4.400000000 _0_ AGT  --- 1411 cbr 512 [0 0 0 0] ------- [0:0 31:0 32 0] [22] 0 0
s 4.400000000 _1_ AGT  --- 1412 cbr 512 [0 0 0 0] ------- [1:0 75:0 32 0] [22] 0 0
s 4.400000000 _2_ AGT  --- 1413 cbr 512 [0 0 0 0] ------- [2:0 28:0 32 0] [22] 0 0
s 4.400000000 _3_ AGT  --- 1414 cbr 512 [0 0 0 0] ------- [3:0 51:0 32 0] [22] 0 0
s 4.400000000 _4_ AGT  --- 1415 cbr 512 [0 0 0 0] ------- [4:0 15:0 32 0] [22] 0 0
r 4.407082571 _28_ AGT  --- 1413 cbr 532 [13a 1c 2 800] ------- [2:0 28:0 31 28] [22] 1 0
D 4.414309567 _55_ RTR NRTE 1039 cbr 532 [13a 37 4e 800] ------- [4:0 15:0 24 55] [10] 7 0
D 4.419226516 _95_ RTR NRTE 1415 cbr 532 [13a 5f 52 800] ------- [4:0 15:0 29 95] [22] 2 0
r 4.448563667 _75_ AGT  --- 1412 cbr 532 [13a 4b 4e 800] ------- [1:0 75:0 29 75] [22] 3 0
r 4.466914459 _31_ AGT  --- 1411 cbr 532 [13a 1f 4b 800] ------- [0:0 31:0 27 31] [22] 5 0
D 4.476432616 _98_ RTR NRTE 1052 cbr 532 [13a 62 1 800] ------- [4:0 15:0 26 98] [11] 5 0
M 4.50000 0 (517.27, 988.32, 0.00), (516.40, 987.96), 9.37
M 4.50000 1 (850.79, 1354.41, 0.00), (850.17, 1354.80), 7.30
M 4.50000 2 (1003.61, 2171.79, 0.00), (1003.36, 2171.33), 5.13
M 4.50000 3 (1629.48, 1474.58, 0.00), (1629.37, 1474.64), 1.20
r 4.522586622 _51_ AGT  --- 1414 cbr 532 [13a 33 4c 800] ------- [3:0 51:0 25 51] [22] 7 0
D 4.529737133 _43_ RTR NRTE 1057 cbr 532 [13a 2b 5f 800] ------- [4:0 15:0 28 43] [12] 3 0
D 4.537334312 _43_ RTR NRTE 1193 cbr 532 [13a 2b 5f 800] ------- [4:0 15:0 28 43] [13] 3 0
D 4.544211488 _43_ RTR NRTE 1202 cbr 532 [13a 2b 5f 800] ------- [4:0 15:0 28 43] [14] 3 0
D 4.551188665 _43_ RTR NRTE 1210 cbr 532 [13a 2b 5f 800] ------- [4:0 15:0 28 43] [15] 3 0
D 4.557885841 _43_ RTR NRTE 1230 cbr 532 [13a 2b 5f 800] ------- [4:0 15:0 28 43] [16] 3 0
D 4.564943017 _43_ RTR NRTE 1235 cbr 532 [13a 2b 5f 800] ------- [4:0 15:0 28 43] [17] 3 0
D 4.571920194 _43_ RTR NRTE 1384 cbr 532 [13a 2b 5f 800] ------- [4:0 15:0 28 43] [18] 3 0
D 4.578243370 _43_ RTR NRTE 1397 cbr 532 [13a 2b 5f 800] ------- [4:0 15:0 28 43] [19] 3 0
D 4.584126547 _43_ RTR NRTE 1402 cbr 532 [13a 2b 5f 800] ------- [4:0 15:0 28 43] [20] 3 0
D 4.589969723 _43_ RTR NRTE 1407 cbr 532 [13a 2b 5f 800] ------- [4:0 15:0 28 43] [21] 3 0
M 4.60000 0 (516.41, 987.96, 0.00), (515.53, 987.58), 9.53
M 4.60000 1 (850.17, 1354.80, 0.00), (849.53, 1355.20), 7.52
M 4.60000 2 (1003.37, 2171.34, 0.00), (1003.11, 2170.87), 5.30
M 4.60000 3 (1629.38, 1474.64, 0.00), (1629.24, 1474.70), 1.43
s 4.600000000 _0_ AGT  --- 1449 cbr 512 [0 0 0 0] ------- [0:0 31:0 32 0] [23] 0 0
s 4.600000000 _1_ AGT  --- 1450 cbr 512 [0 0 0 0] ------- [1:0 75:0 32 0] [23] 0 0
s 4.600000000 _2_ AGT  --- 1451 cbr 512 [0 0 0 0] ------- [2:0 28:0 32 0] [23] 0 0
s 4.600000000 _3_ AGT  --- 1452 cbr 512 [0 0 0 0] ------- [3:0 51:0 32 0] [23] 0 0
s 4.600000000 _4_ AGT  --- 1453 cbr 512 [0 0 0 0] ------- [4:0 15:0 32 0] [23] 0 0
r 4.605996071 _28_ AGT  --- 1451 cbr 532 [13a 1c 2 800] ------- [2:0 28:0 31 28] [23] 1 0
r 4.649026524 _31_ AGT  --- 1449 cbr 532 [13a 1f 4b 800] ------- [0:0 31:0 27 31] [23] 5 0
r 4.681420654 _75_ AGT  --- 1450 cbr 532 [13a 4b 4e 800] ------- [1:0 75:0 29 75] [23] 3 0
M 4.70000 0 (515.53, 987.58, 0.00), (514.63, 987.20), 9.69
M 4.70000 1 (849.54, 1355.20, 0.00), (848.87, 1355.61), 7.76
M 4.70000 2 (1003.11, 2170.87, 0.00), (1002.85, 2170.38), 5.55
M 4.70000 3 (1629.25, 1474.70, 0.00), (1629.10, 1474.78), 1.63
r 4.712422362 _51_ AGT  --- 1452 cbr 532 [13a 33 4c 800] ------- [3:0 51:0 25 51] [23] 7 0
M 4.80000 0 (514.64, 987.20, 0.00), (513.72, 986.81), 9.89
M 4.80000 1 (848.88, 1355.61, 0.00), (848.19, 1356.03), 8.02
M 4.80000 2 (1002.85, 2170.38, 0.00), (1002.58, 2169.87), 5.76
M 4.80000 3 (1629.11, 1474.78, 0.00), (1628.94, 1474.87), 1.81
s 4.800000000 _0_ AGT  --- 1477 cbr 512 [0 0 0 0] ------- [0:0 31:0 32 0] [24] 0 0
s 4.800000000 _1_ AGT  --- 1478 cbr 512 [0 0 0 0] ------- [1:0 75:0 32 0] [24] 0 0
s 4.800000000 _2_ AGT  --- 1479 cbr 512 [0 0 0 0] ------- [2:0 28:0 32 0] [24] 0 0